# vtk DataFile Version 1.0
Cube
ASCII

DATASET POLYDATA
POINTS 3 float
10.484125 6.280540 20.395315
10.528782 6.918144 19.427293
10.573439 7.555749 18.459272
LINES 2 6
2 0 1
2 1 2
POINT_DATA 3
SCALARS my_scalars float
LOOKUP_TABLE default
1.52
1.7
1.52
VECTORS vectors float
0.03125 0 0
0.3125 0 0
0.03125 0 0
