Compiler and run-time data
===========================================================================
RASPA 2.0.46
Compiled as a 64-bits application
Compiler: gcc 9.3.0
Compile Date = Aug 10 2021, Compile Time = 14:28:38

Thu Sep 15 20:48:04 2022
Simulation started on Thursday, September 15.
The start time was 08:48 PM.

Hostname:    lsmob101683
OS type:     Linux on x86_64
OS release:  5.15.0-41-generic
OS version:  #44~20.04.1-Ubuntu SMP Fri Jun 24 13:27:29 UTC 2022

Simulation
===========================================================================
Dimensions: 3
Random number seed: 1663267683
RASPA directory set to: /home/xiaoqi/RASPA/simulations/
String appended to output-files: 
Number of cycles: 10000
Number of initializing cycles: 6000
Number of equilibration cycles: 0
Print every: 5000
Triclinic boundary condition applied
Timestep: 0.000500
	Degrees of freedom:                        5
	Translational Degrees of freedom:          3
	Rotational Degrees of freedom:             2
	Degrees of freedom Framework:              0


Mutual consistent basic set of units:
======================================
Unit of temperature: Kelvin
Unit of length:      1e-10 [m]
Unit of time:        1e-12 [s]
Unit of mass:        1.66054e-27 [kg]
Unit of charge:      1.60218e-19 [C/particle]

Derived units and their conversion factors:
===========================================
Unit of energy:              1.66054e-23 [J]
Unit of force:               1.66054e-13 [N]
Unit of pressure:            1.66054e+07 [Pa]
Unit of velocity:            100 [m/s]
Unit of acceleration:        1e-08 [m^2/s]
Unit of diffusion:           1e-08 [m^2/s]
Unit of dipole moment:       1.60218e-29 [C.m]
Unit of electric potential:  0.000103643 [V]
Unit of electric field:      1.03643e+06 [V]
Unit of polarizability:      1.54587e-35 [-]
Unit of Coulomb potential:   167101.0800066561  [K]
Unit of dielectric constant: 0.0000154587       [s^2 C^2/(kg m^3)]
Unit of wave vectors:        5.3088374589       [cm^1]
Boltzmann constant:          0.8314464919       [-]

Internal conversion factors:
===========================================
Energy to Kelvin:                                    1.2027242847
FH correction factor                                 2.0211930949
Heat capacity conversion factor:                    10.0000088723
From Debye to internal units:                        4.8032067991
Isothermal compressibility conversion factor:        0.0000000602

Energy conversion factors:
===========================================
From mdyne/A to kcal/mol/A^2:           143.933
From mdyne/A to kj/mol/A^2:             602.214
From mdyne/A to K/A^2:                  72429.7
From mdyne A/rad^2 to kcal/mol/deg^2:   0.0438444


Properties computed
===========================================================================
Movies: yes
	Movie snapshots are appended to file every 1 cycles
Radial Distribution Function: no
Number of molecules GCMC histogram: no
Histogram of the molecule positions: no
Free energy profiles: no
Pore Size Distribution Function: no
End-to-end distance: no
Histogram of the energy of the system: no
Compute thermodynamic factors: no
Framework spacing histograms: no
Residence times histograms: no
Distance histograms: no
Bend Angle histograms: no
Dihedral angle histograms: no
Angle between planes histograms: no
Molecule properties: no
Infra-red spectra: no
Mean-squared displacement using modified order-N algorithm: no
Velocity-autocorrelation function modified order-N algorithm: no
Rotational velocity-autocorrelation function modified order-N algorithm: no
Molecular orientation-autocorrelation function modified order-N algorithm: no
Bond orientation-autocorrelation function modified order-N algorithm: no
Mean-squared displacement (conventional algorithm): no
Velocity-autocorrelation function (conventional algorithm): no
3D density grid for adsorbates: no
Compute cation an/or adsorption sites: no
dcTST snapshots: no
Compute pressure and stress: no


VTK
===========================================================================
VTK fractional-range position framework atoms: [-0.001000,1.001000] [-0.001000,1.001000] [-0.001000,1.001000]
VTK fractional-range position framework bonds: [-0.151000,1.151000] [-0.151000,1.151000] [-0.151000,1.151000]
VTK fractional-range com-position adsorbate molecules: [-0.101000,1.101000] [-0.101000,1.101000] [-0.101000,1.101000]
VTK fractional-range com-position cation molecules: [-0.101000,1.101000] [-0.101000,1.101000] [-0.101000,1.101000]
	3D free energy grid made for the full simulation-cell


Thermo/Baro-stat NHC parameters
===========================================================================
External temperature: 298 [K]
Beta: 0.00403598 [energy unit]
External Pressure: 0 [Pa]


Thermostat chain-length: 3
Timescale parameter for thermostat: 0.150000 [ps]
Barostat chain-length:   3
Timescale parameter for barostat:   0.150000 [ps]

Number of Yoshida-Suzuki decomposition steps: 5
Number of respa steps: 5


Method and settings for electrostatics
===============================================================================
Dielectric constant of the medium : 1.000000
Charge from charge-equilibration: no
Ewald summation is used (exact solution of a periodic system)
Relative precision                : 1e-06
Alpha convergence parameter       : 0.265058
kvec (x,y,z)                      : 9 7 7


CFC-RXMC parameters
===========================================================================
Number of reactions: 0


Rattle parameters
===========================================================================
Distance constraint type: r^2-r^2_0
Bend angle constraint type: theta-theta_0
Dihedral angle constraint type: phi-phi_0
Inversion-bend angle constraint type: chi-chi_0
Out-of-plane distance constraint type: r-r_0


Spectra parameters
===========================================================================
Compute normal modes: no


Minimization parameters
===========================================================================
Generalized coordinates are: Cartesian center-of-mass, elements of the orientational matrix p1,p2,p3 and strain
Potential derivatives are evaluated: analytically
Translation of the system is removed from the generalized Hessian: no
Rotation of the system is removed from the generalized Hessian: no
Maximum step-length: 0.3
Convergence factor: 1
Maximum number of minimization steps: 10000
Use gradients in the line-minimizations: yes
RMS gradient tolerance: 1e-06
Maximum gradient tolerance: 1e-06

Distance constraints: 0
Angle constraints: 0
Dihedral constraints: 0

Improper dihedral constraints: 0

Inversion-bend constraints: 0

Out-of-plane constraints: 0

Harmonic distance constraints: 0
Harmonic angle constraints: 0
Harmonic dihedral constraints: 0

Dihedral mid-point measurements: 0

All framework atoms are fixed

Fixed adsorbate atoms:  
Fixed adsorbate groups (center-of-mass):  
Fixed adsorbate groups (orientation):  

Fixed cation atoms:  
Fixed cation groups (center-of-mass):  
Fixed cation groups (orientation):  


dcTST parameters
===========================================================================
Free energy profiles computed: no
Free energy profiles written every 5000 cycles
Free energy mapping: mapped to a,b,c-coordinates
BarrierPosition:       0.0000000000       0.0000000000       0.0000000000
BarrierNormal:         0.0000000000       0.0000000000       0.0000000000
Start with a molecule on top of the barrier: no
Maximum distance to barrier (e.g. distance to minumum free energy):       0.0000000000 [A]
Maximum trajectory time:      10.0000000000 [ps]
Each configuration is used with 5 different initial velocities


Cbmc parameters
===========================================================================
Biasing method: using only the VDW part
Number of trial positions:                                       10
Number of trial positions (reinsertion):                         10
Number of trial positions (partial reinsertion):                 10
Number of trial positions (identity-change):                     10
Number of trial positions (Gibbs particle transfer):             10
Number of trial positions (insertion/deletion):                  10
Number of trial positions (Widom insertion):                     10
Number of trial positions coupled Torsion-selection:             100
Number of trial positions first bead:                            10
Number of trial positions first bead (reinsertion):              10
Number of trial positions first bead (partial reinsertion):      10
Number of trial positions first bead (identity-change):          10
Number of trial positions first bead (Gibbs particle transfer):  10
Number of trial positions first bead (insertion/deletion):       10
Number of trial positions first bead (Widom insertion):          10
Number of trial moves per open bead:                             150
Target acceptance ratio small-mc scheme:                         0.400000
Energy overlap criteria:                                         1e+07
Minimal Rosenbluth factor:                                       1e-150


Pseudo atoms: 12
===========================================================================
Pseudo Atom[   0] Name UNIT     Oxidation:          Element: H    pdb-name: H    Scat. Types:   1   1 Mass=1.000000000  B-factor:0.000   
                 Charge=1.000000000          Polarization=0.000000000  [A^3] (considered a charged atom and no polarization)  Interactions: yes
                 Anisotropic factor:    0.000 [-] (Absolute), Radius:    1.000 [A], Framework-atom:  no
Pseudo Atom[   1] Name CH4_sp3  Oxidation: +0       Element: C    pdb-name: C    Scat. Types:   7   6 Mass=16.042460000 B-factor:1.000   
                 Charge=0.000000000          Polarization=0.000000000  [A^3] (considered a chargeless atom and no polarization)  Interactions: yes
                 Anisotropic factor:    0.000 [-] (Relative), Radius:    1.000 [A], Framework-atom:  no
Pseudo Atom[   2] Name C_co2    Oxidation: +0       Element: C    pdb-name: C    Scat. Types:   7   6 Mass=12.000000000 B-factor:1.000   
                 Charge=0.700000000          Polarization=0.000000000  [A^3] (considered a charged atom and no polarization)  Interactions: yes
                 Anisotropic factor:    0.000 [-] (Relative), Radius:    0.720 [A], Framework-atom:  no
Pseudo Atom[   3] Name O_co2    Oxidation: +0       Element: O    pdb-name: O    Scat. Types:   9   8 Mass=15.999400000 B-factor:1.000   
                 Charge=-0.350000000         Polarization=0.000000000  [A^3] (considered a charged atom and no polarization)  Interactions: yes
                 Anisotropic factor:    0.000 [-] (Relative), Radius:    0.680 [A], Framework-atom:  no
Pseudo Atom[   4] Name N_n2     Oxidation: +0       Element: N    pdb-name: N    Scat. Types:   8   7 Mass=14.006740000 B-factor:1.000   
                 Charge=-0.482000000         Polarization=0.000000000  [A^3] (considered a charged atom and no polarization)  Interactions: yes
                 Anisotropic factor:    0.000 [-] (Relative), Radius:    0.700 [A], Framework-atom:  no
Pseudo Atom[   5] Name N_com    Oxidation: +0       Element: -    pdb-name: N    Scat. Types:   0   7 Mass=0.000000000  B-factor:1.000   
                 Charge=0.964000000          Polarization=0.000000000  [A^3] (considered a charged atom and no polarization)  Interactions: yes
                 Anisotropic factor:    0.000 [-] (Relative), Radius:    0.700 [A], Framework-atom:  no
Pseudo Atom[   6] Name N_com    Oxidation: +0       Element: -    pdb-name: N    Scat. Types:   0   7 Mass=0.000000000  B-factor:1.000   
                 Charge=0.964000000          Polarization=0.000000000  [A^3] (considered a charged atom and no polarization)  Interactions: yes
                 Anisotropic factor:    0.000 [-] (Relative), Radius:    0.700 [A], Framework-atom:  no
Pseudo Atom[   7] Name Fe       Oxidation:          Element: Fe   pdb-name: Fe   Scat. Types:  27  26 Mass=55.845145624 B-factor:0.000   
                 Charge=1.266250000    (av)  Polarization=8.400000000  [A^3] (considered a charged atom and no polarization)  Interactions: yes
                 Anisotropic factor:    0.000 [-] (Absolute), Radius:    1.240 [A], Framework-atom: yes (charge from structure file)
Pseudo Atom[   8] Name P        Oxidation:          Element: P    pdb-name: P    Scat. Types:  16  15 Mass=30.973761630 B-factor:0.000   
                 Charge=0.575250000    (av)  Polarization=3.630000000  [A^3] (considered a charged atom and no polarization)  Interactions: yes
                 Anisotropic factor:    0.000 [-] (Absolute), Radius:    1.090 [A], Framework-atom: yes (charge from structure file)
Pseudo Atom[   9] Name O        Oxidation:          Element: O    pdb-name: O    Scat. Types:   9   8 Mass=15.999404927 B-factor:0.000   
                 Charge=-0.342109375   (av)  Polarization=0.802000000  [A^3] (considered a charged atom and no polarization)  Interactions: yes
                 Anisotropic factor:    0.000 [-] (Absolute), Radius:    0.640 [A], Framework-atom: yes (charge from structure file)
Pseudo Atom[  10] Name H        Oxidation:          Element: H    pdb-name: H    Scat. Types:   1   1 Mass=1.007940754  B-factor:0.000   
                 Charge=0.255166667    (av)  Polarization=0.666793000  [A^3] (considered a charged atom and no polarization)  Interactions: yes
                 Anisotropic factor:    0.000 [-] (Absolute), Radius:    0.320 [A], Framework-atom: yes (charge from structure file)
Pseudo Atom[  11] Name C        Oxidation:          Element: C    pdb-name: C    Scat. Types:   7   6 Mass=12.010735897 B-factor:0.000   
                 Charge=0.225000000    (av)  Polarization=1.760000000  [A^3] (considered a charged atom and no polarization)  Interactions: yes
                 Anisotropic factor:    0.000 [-] (Absolute), Radius:    0.750 [A], Framework-atom: yes (charge from structure file)


Forcefield: UFFTraPPE
===========================================================================
Minimal distance: 1
CutOff VDW : 12.800000 (163.840000)
CutOff VDW switching on: 11.520000 (132.710400)
CutOff charge-charge : 12.000000 (144.000000)
CutOff charge-charge switching on: 7.800000 (60.840000)
CutOff charge-bonddipole : 12.000000 (144.000000)
CutOff charge-bondipole switching on: 8.400000 (70.560000)
CutOff bonddipole-bonddipole : 12.000000 (144.000000)
CutOff bonddipole-bondipole switching on: 9.000000 (81.000000)
Polarization is neglected
All potentials are shifted to zero at the Cutoff

General mixing rule: Lorentz-Berthelot mixing rules are used FIRST for cross terms
0 cross terms are overwritten using the individual mixing rules from the file 'force_field_mixing_rules.def'
and then 0 terms are overwritten using the specific interactions from the file 'force_field.def'

The force field and all the interactions:
CH4_sp3 - CH4_sp3 [LENNARD_JONES] p_0/k_B: 148.00000 [K], p_1: 3.73000 [A], shift/k_B:  -0.36228376 [K], tailcorrection: no
CH4_sp3 -   C_co2 [LENNARD_JONES] p_0/k_B:  63.21392 [K], p_1: 3.26500 [A], shift/k_B:  -0.06962936 [K], tailcorrection: no
CH4_sp3 -   O_co2 [LENNARD_JONES] p_0/k_B: 108.12955 [K], p_1: 3.39000 [A], shift/k_B:  -0.14920826 [K], tailcorrection: no
CH4_sp3 -    N_n2 [LENNARD_JONES] p_0/k_B:  72.99315 [K], p_1: 3.52000 [A], shift/k_B:  -0.12622645 [K], tailcorrection: no
CH4_sp3 -   N_com [ZERO_POTENTIAL]
CH4_sp3 -   N_com [ZERO_POTENTIAL]
CH4_sp3 -      Fe [LENNARD_JONES] p_0/k_B:  31.11736 [K], p_1: 3.16215 [A], shift/k_B:  -0.02828779 [K], tailcorrection: no
CH4_sp3 -       P [LENNARD_JONES] p_0/k_B: 150.72379 [K], p_1: 3.71230 [A], shift/k_B:  -0.35857650 [K], tailcorrection: no
CH4_sp3 -       O [LENNARD_JONES] p_0/k_B:  66.85097 [K], p_1: 3.42405 [A], shift/k_B:  -0.09794659 [K], tailcorrection: no
CH4_sp3 -       H [LENNARD_JONES] p_0/k_B:  57.24768 [K], p_1: 3.15055 [A], shift/k_B:  -0.05090726 [K], tailcorrection: no
CH4_sp3 -       C [LENNARD_JONES] p_0/k_B:  88.43550 [K], p_1: 3.58045 [A], shift/k_B:  -0.16937309 [K], tailcorrection: no
  C_co2 -   C_co2 [LENNARD_JONES] p_0/k_B:  27.00000 [K], p_1: 2.80000 [A], shift/k_B:  -0.01183217 [K], tailcorrection: no
  C_co2 -   O_co2 [LENNARD_JONES] p_0/k_B:  46.18441 [K], p_1: 2.92500 [A], shift/k_B:  -0.02630201 [K], tailcorrection: no
  C_co2 -    N_n2 [LENNARD_JONES] p_0/k_B:  31.17691 [K], p_1: 3.05500 [A], shift/k_B:  -0.02304731 [K], tailcorrection: no
  C_co2 -   N_com [ZERO_POTENTIAL]
  C_co2 -   N_com [ZERO_POTENTIAL]
  C_co2 -      Fe [LENNARD_JONES] p_0/k_B:  13.29088 [K], p_1: 2.69715 [A], shift/k_B:  -0.00465314 [K], tailcorrection: no
  C_co2 -       P [LENNARD_JONES] p_0/k_B:  64.37731 [K], p_1: 3.24730 [A], shift/k_B:  -0.06863595 [K], tailcorrection: no
  C_co2 -       O [LENNARD_JONES] p_0/k_B:  28.55346 [K], p_1: 2.95905 [A], shift/k_B:  -0.01743036 [K], tailcorrection: no
  C_co2 -       H [LENNARD_JONES] p_0/k_B:  24.45169 [K], p_1: 2.68555 [A], shift/k_B:  -0.00834203 [K], tailcorrection: no
  C_co2 -       C [LENNARD_JONES] p_0/k_B:  37.77267 [K], p_1: 3.11545 [A], shift/k_B:  -0.03140597 [K], tailcorrection: no
  O_co2 -   O_co2 [LENNARD_JONES] p_0/k_B:  79.00000 [K], p_1: 3.05000 [A], shift/k_B:  -0.05782915 [K], tailcorrection: no
  O_co2 -    N_n2 [LENNARD_JONES] p_0/k_B:  53.32917 [K], p_1: 3.18000 [A], shift/k_B:  -0.05014476 [K], tailcorrection: no
  O_co2 -   N_com [ZERO_POTENTIAL]
  O_co2 -   N_com [ZERO_POTENTIAL]
  O_co2 -      Fe [LENNARD_JONES] p_0/k_B:  22.73450 [K], p_1: 2.82215 [A], shift/k_B:  -0.01044519 [K], tailcorrection: no
  O_co2 -       P [LENNARD_JONES] p_0/k_B: 110.11956 [K], p_1: 3.37230 [A], shift/k_B:  -0.14725722 [K], tailcorrection: no
  O_co2 -       O [LENNARD_JONES] p_0/k_B:  48.84166 [K], p_1: 3.08405 [A], shift/k_B:  -0.03821502 [K], tailcorrection: no
  O_co2 -       H [LENNARD_JONES] p_0/k_B:  41.82545 [K], p_1: 2.81055 [A], shift/k_B:  -0.01874735 [K], tailcorrection: no
  O_co2 -       C [LENNARD_JONES] p_0/k_B:  64.61143 [K], p_1: 3.24045 [A], shift/k_B:  -0.06801851 [K], tailcorrection: no
   N_n2 -    N_n2 [LENNARD_JONES] p_0/k_B:  36.00000 [K], p_1: 3.31000 [A], shift/k_B:  -0.04304679 [K], tailcorrection: no
   N_n2 -   N_com [ZERO_POTENTIAL]
   N_n2 -   N_com [ZERO_POTENTIAL]
   N_n2 -      Fe [LENNARD_JONES] p_0/k_B:  15.34699 [K], p_1: 2.95215 [A], shift/k_B:  -0.00923822 [K], tailcorrection: no
   N_n2 -       P [LENNARD_JONES] p_0/k_B:  74.33651 [K], p_1: 3.50230 [A], shift/k_B:  -0.12472116 [K], tailcorrection: no
   N_n2 -       O [LENNARD_JONES] p_0/k_B:  32.97070 [K], p_1: 3.21405 [A], shift/k_B:  -0.03304724 [K], tailcorrection: no
   N_n2 -       H [LENNARD_JONES] p_0/k_B:  28.23438 [K], p_1: 2.94055 [A], shift/k_B:  -0.01659916 [K], tailcorrection: no
   N_n2 -       C [LENNARD_JONES] p_0/k_B:  43.61612 [K], p_1: 3.37045 [A], shift/k_B:  -0.05813394 [K], tailcorrection: no
  N_com -   N_com [ZERO_POTENTIAL]
  N_com -   N_com [ZERO_POTENTIAL]
  N_com -      Fe [ZERO_POTENTIAL]
  N_com -       P [ZERO_POTENTIAL]
  N_com -       O [ZERO_POTENTIAL]
  N_com -       H [ZERO_POTENTIAL]
  N_com -       C [ZERO_POTENTIAL]
  N_com -   N_com [ZERO_POTENTIAL]
  N_com -      Fe [ZERO_POTENTIAL]
  N_com -       P [ZERO_POTENTIAL]
  N_com -       O [ZERO_POTENTIAL]
  N_com -       H [ZERO_POTENTIAL]
  N_com -       C [ZERO_POTENTIAL]
     Fe -      Fe [LENNARD_JONES] p_0/k_B:   6.54250 [K], p_1: 2.59430 [A], shift/k_B:  -0.00181399 [K], tailcorrection: no
     Fe -       P [LENNARD_JONES] p_0/k_B:  31.69004 [K], p_1: 3.14445 [A], shift/k_B:  -0.02785452 [K], tailcorrection: no
     Fe -       O [LENNARD_JONES] p_0/k_B:  14.05558 [K], p_1: 2.85620 [A], shift/k_B:  -0.00693948 [K], tailcorrection: no
     Fe -       H [LENNARD_JONES] p_0/k_B:  12.03646 [K], p_1: 2.58270 [A], shift/k_B:  -0.00324873 [K], tailcorrection: no
     Fe -       C [LENNARD_JONES] p_0/k_B:  18.59378 [K], p_1: 3.01260 [A], shift/k_B:  -0.01263988 [K], tailcorrection: no
      P -       P [LENNARD_JONES] p_0/k_B: 153.49770 [K], p_1: 3.69460 [A], shift/k_B:  -0.35485864 [K], tailcorrection: no
      P -       O [LENNARD_JONES] p_0/k_B:  68.08129 [K], p_1: 3.40635 [A], shift/k_B:  -0.09669618 [K], tailcorrection: no
      P -       H [LENNARD_JONES] p_0/k_B:  58.30127 [K], p_1: 3.13285 [A], shift/k_B:  -0.05012131 [K], tailcorrection: no
      P -       C [LENNARD_JONES] p_0/k_B:  90.06307 [K], p_1: 3.56275 [A], shift/k_B:  -0.16743914 [K], tailcorrection: no
      O -       O [LENNARD_JONES] p_0/k_B:  30.19630 [K], p_1: 3.11810 [A], shift/k_B:  -0.02523500 [K], tailcorrection: no
      O -       H [LENNARD_JONES] p_0/k_B:  25.85854 [K], p_1: 2.84460 [A], shift/k_B:  -0.01245888 [K], tailcorrection: no
      O -       C [LENNARD_JONES] p_0/k_B:  39.94594 [K], p_1: 3.27450 [A], shift/k_B:  -0.04477350 [K], tailcorrection: no
      H -       H [LENNARD_JONES] p_0/k_B:  22.14390 [K], p_1: 2.57110 [A], shift/k_B:  -0.00581754 [K], tailcorrection: no
      H -       C [LENNARD_JONES] p_0/k_B:  34.20762 [K], p_1: 3.00100 [A], shift/k_B:  -0.02272202 [K], tailcorrection: no
      C -       C [LENNARD_JONES] p_0/k_B:  52.84350 [K], p_1: 3.43090 [A], shift/k_B:  -0.07835722 [K], tailcorrection: no


MoleculeDefinitions:
===========================================================================
Component 0 [CO2] (Adsorbate molecule)

	MoleculeDefinitions: UFFTraPPE
	Component contains (at least some) atoms which are charged
	Component contains no atoms with point dipoles (polarization)
	Component has a net charge of 0.000000

	Ideal chain Rosenbluth weight: 1
	Ideal chain total energy: 0.000000

	Critical temparure [K]: 304.128200
	Critical pressure [Pa]: 7377300.000000
	Acentric factor [-]: 0.223940

	RXMC partition factor ln(q/V) [ln(A^(-3))]:       0.0000000000

	Vapour=stable, Liquid=metastable

	MolFraction:           1.0000000000 [-]
	Compressibility:       0.0000000000 [-]

	Density of the bulk fluid phase:       0.0000000000 [kg/m^3]


	Amount of excess molecules:       0.0000000000 [-]

	Conversion factor molecules/unit cell -> mol/kg:       0.5126655574 [-]
	Conversion factor molecules/unit cell -> mg/g:      22.5566693266 [-]
	Conversion factor molecules/unit cell -> cm^3 STP/gr:      11.4908733700 [-]
	Conversion factor molecules/unit cell -> cm^3 STP/cm^3:      21.8366178751 [-]
	Conversion factor mol/kg -> cm^3 STP/gr:      22.4139757476 [-]
	Conversion factor mol/kg -> cm^3 STP/cm^3:      42.5942752740 [-]

	Partial pressure: -16605402.00000000000000 [Pa]
	                    -124540.51499999999942 [Torr]
	                       -166.05402000000001 [bar]
	                       -163.88257586972614 [atm]

	Fugacity coefficient:      -1.0000000000 [-]

	Partial fugacity:  16605402.00000000000000 [Pa]
	                     124540.51499999999942 [Torr]
	                        166.05402000000001 [bar]
	                        163.88257586972614 [atm]

	Molecule contains 3 number of atoms
		atom:    0  is of type:    3 [     O_co2] (group: 0)
		atom:    1  is of type:    2 [     C_co2] (group: 0)
		atom:    2  is of type:    3 [     O_co2] (group: 0)

	Molecule contains 0 chirality centers

	Molecule contains 1 number of groups

		group: 0 containing: 3 elements
		-------------------------------------------------
		the group is rigid and linear
		Mass: 43.998800 [a.u.]
		Mass: 3.572121 [kg/m^3]

		Rotational Degrees of freedom: 2
		Diagonalized inertia vector:      43.0575852800
		                                  43.0575852800
		                                   0.0000000000
		number of atoms: 3
			element: 0 atom: 0 [     O_co2] Charge: -0.350000 Anisotropy: 0.000000 Position:  0.000000 -0.000000  1.160000 Connectivity: 1 (1 )
			element: 1 atom: 1 [     C_co2] Charge:  0.700000 Anisotropy: 0.000000 Position:  0.000000 -0.000000  0.000000 Connectivity: 2 (0 2 )
			element: 2 atom: 2 [     O_co2] Charge: -0.350000 Anisotropy: 0.000000 Position:  0.000000 -0.000000 -1.160000 Connectivity: 1 (1 )
		number of permanent dipoles: 0
		number of polarizabilities: 0

		Dipole:           0.0000000000 [D]
		Quadrupole:       2.2621182741       2.2621182741      -4.5242365482 [D Angstrom]
		Quadrupole tensor [D Angstrom]
				       2.2621182741       0.0000000000       0.0000000000
				       0.0000000000       2.2621182741       0.0000000000
				       0.0000000000       0.0000000000      -4.5242365482

	Starting bead for growth               : 0

	Degrees of freedom                     : 0
	Translational degrees of freedom       : 0
	Rotational degrees of freedom          : 0
	Vibrational degrees of freedom         : 0
	Constraint degrees of freedom          : 0

	Number of atoms                        : 3

	Number of constraint bonds             : 0
	Number of constraint bends             : 0
	Number of constraint inversion bends   : 0
	Number of constraint torsions          : 0
	Number of constraint improper torsions : 0
	Number of constraint improper torsions : 0

	Number of bonds                        : 2
	Number of Urey-Bradleys                : 0
	Number of bends                        : 0
	Number of inversion bends              : 0
	Number of torsions                     : 0
	Number of improper torsions            : 0
	Number of improper torsions            : 0

	Number of bond/bond cross terms        : 0
	Number of bond/bend cross terms        : 0
	Number of bend/bend cross terms        : 0
	Number of stretch/torsion cross terms  : 0
	Number of bend/torsion cross terms     : 0

	Number of charges                      : 3
	Number of bond-dipoles                 : 0

	Number of intra Van der Waals                             : 0
	Number of intra charge-charge Coulomb                     : 0
	Number of intra charge-bonddipole Coulomb                 : 0
	Number of intra bonddipole-bonddipole Coulomb             : 0

	Number of excluded intra charge-charge Coulomb                     : 3
	Number of excluded intra charge-bonddipole Coulomb                 : 0
	Number of excluded intra bonddipole-bonddipole Coulomb             : 0

	Number of cbmc-config moves                               : 0

	Particle Moves:             
		ProbabilityTranslationMove:                  33.333333
			TranslationDirection:      XYZ
		Percentage of random translation moves:            0.000000
		Percentage of rotation moves:                      33.333333
		Percentage of random rotation moves:               0.000000
		Percentage of partial reinsertion moves:           0.000000
		Percentage of reinsertion moves:                   33.333333
		Percentage of reinsertion-in-place moves:          0.000000
		Percentage of reinsertion-in-plane moves:          0.000000
		Percentage of identity-change moves:               0.000000
		Percentage of swap (insert/delete) moves:          0.000000
		Percentage of CF swap lambda moves:                0.000000
		Percentage of CB/CFMC swap lambda moves:           0.000000
		Percentage of Widom insertion moves:               0.000000
		Percentage of CF-Widom insertion moves:            0.000000
		Percentage of Gibbs Widom insertion moves:         0.000000
		Percentage of surface-area moves:                  0.000000
		Percentage of Gibbs particle-transfer moves:       0.000000
		Percentage of Gibbs identity-change moves:         0.000000
		Percentage of CF Gibbs lambda-transfer moves:      0.000000
		Percentage of CB/CFMC Gibbs lambda-transfer moves: 0.000000
		Percentage of exchange frac./int. particle moves:  0.000000
		Percentage of fractional mol. to other box moves:  0.000000
		Percentage of lambda-change moves:                 0.000000
		Percentage of fractional to integer moves:         0.000000

	System Moves:
		Percentage of parallel-tempering moves:            0.000000
		Percentage of hyper-parallel-tempering moves:      0.000000
		Percentage of parallel-mol-fraction moves:         0.000000
			   Component A: 0 B: 1
		Percentage of chiral inversion moves:              0.000000
		Percentage of Hybrid-NVE moves:                    0.000000
		Percentage of Hybrid-NPH moves:                    0.000000
		Percentage of Hybrid-NPHPR moves:                  0.000000
		Percentage of volume-change moves:                 0.000000
		Percentage of box-shape-change moves:              0.000000
		Percentage of Gibbs volume-change moves:           0.000000
		Percentage of framework-change moves:              0.000000
		Percentage of framework-shift moves:               0.000000
		Percentage of reactive MC moves:                   0.000000

	Moves are restricted: No
	No biased sampling used for this component

	Number of Bonds: 2
	--------------------------------------------
	Bond interaction 0: A=0 B=1 Type:RIGID_BOND
		r_0=1.1600000000       [A]
	Bond interaction 1: A=1 B=2 Type:RIGID_BOND
		r_0=1.1600000000       [A]


	number of identity-config changes: 1
	--------------------------------------------
	nr fixed 1: 0 

	Number of pockets blocked in a unitcell: 0
		Pockets are NOT blocked for this component



Framework Status
===========================================================================
Lowenstein's rule obeyed by framework
	Framework is modelled as: rigid

	Number of charges:                               1248
	Number of bonddipoles:                           0


System Properties
===========================================================================
Unit cell size: 10.829400 12.746500 12.397100
Cell angles (radians)  alpha: 1.570796 beta: 1.660070 gamma: 1.570796
Cell angles (degrees)  alpha: 90.000000 beta: 95.115000 gamma: 90.000000
Number of unitcells [a]: 3
Number of unitcells [b]: 2
Number of unitcells [c]: 2

TRICLINIC Boundary conditions: alpha!=90 or beta!=90 or gamma!=90

Cartesian axis A is collinear with crystallographic axis a
Cartesian axis B is collinear with (axb)xA
Cartesian axis C is collinear with (axb)

lengths of cell vectors:
 32.48820  25.49300  24.79420
cosines of cell angles:
  0.00000  -0.08916   0.00000
perpendicular cell widths:
 32.35882  25.49300  24.69546
volume of the cell: 20453.318345275620 (A^3)

Orthogonalization matrix Box
Transforms fractional coordinates abc into orthonormal Cartesian coordinates xyz
Deorthogonalization matrix InverseBox
Transforms orthonormal Cartesian coordinates xyz into fractional coordinates xyz

Box[0]:
	   32.488200000000     0.000000000000    -2.210528308275
	    0.000000000000    25.493000000000     0.000000000000
	    0.000000000000     0.000000000000    24.695463515357

Inverse box[0]:
	    0.030780406424    -0.000000000000     0.002755200756
	    0.000000000000     0.039226454321    -0.000000000000
	    0.000000000000     0.000000000000     0.040493267088


Unitcell box[0]:
	   10.829400000000     0.000000000000    -1.105264154138
	    0.000000000000    12.746500000000     0.000000000000
	    0.000000000000     0.000000000000    12.347731757678

Unitcell inverse box[0]:
	    0.092341219273    -0.000000000000     0.008265602267
	    0.000000000000     0.078452908642    -0.000000000000
	    0.000000000000     0.000000000000     0.080986534177

lengths of cell vectors (inverse box):
  0.03078   0.03923   0.04059
cosines of cell angles (inverse box):
 -0.00000   0.06788  -0.00000
perpendicular cell widths (inverse):
  0.03071   0.03923   0.04049
volume of the cell: 20453.318345275620 (A^3)

No replicas are used
Framework is simulated as 'rigid'
Number of framework atoms: 1248
Number of framework atoms in the unit cell: 104
Framework Mass: 23407.072753265031 [g/mol]
Framework Density:  1900.344488350617 [kg/m^3]    0.5262203806363 [cm^3/g]
Helium void fraction:    0.00000000
Available pore volume:    0.00000000 [A^3]    0.00000000 [cm^3/g]
Conversion factor from molecule/unit cell -> kmol/m^3: 0.0811868, kmol/m^3 accesible pore volume: inf

Number Of Frameworks (per system): 1
----------------------------------------------------------------------
Framework name: WOGHOP_clean
Space group: 1
	Identifier: 1
	short international Hermann-Mauguin symbol: P 1
	long international Hermann-Mauguin symbol: P 1
	Hall symbol: P 1
	Number of lattice translations: 1 [ (0,0,0) ]
	acentric/centric: acentric
	chiral: no
	enantiomorphic: no
	number of operators: 1
		'x,y,z'
Framework is simulated as 'rigid'
Shift: 0.000000 0.000000 0.000000
Number of framework atoms: 1248
Number of asymmetric atoms: 104
Number of free framework atoms: 0
Number of fixed framework atoms: 1248
Number of framework atoms in the unit cell: 104
Framework Mass: 23407.072753265031 [g/mol]
Framework Density:  1900.344488350617 [kg/m^3]
Framework has net charge: 0.000000
         largest charge : 1.268000
         smallest charge: -0.402000

Using FULL Host-guest interaction calculation (for testing purposes)

Current Atom Status
===========================================================================
Number of framework atoms        : 1248
Number of cations molecules      : 0
Number of adsorbate molecules    : 1
Component    0 :    1 molecules
Pseudo Atoms    0 [    UNIT]:    0 atoms
Pseudo Atoms    1 [ CH4_sp3]:    0 atoms
Pseudo Atoms    2 [   C_co2]:    1 atoms
Pseudo Atoms    3 [   O_co2]:    2 atoms
Pseudo Atoms    4 [    N_n2]:    0 atoms
Pseudo Atoms    5 [   N_com]:    0 atoms
Pseudo Atoms    6 [   N_com]:    0 atoms
Pseudo Atoms    7 [      Fe]:   96 atoms
Pseudo Atoms    8 [       P]:  144 atoms
Pseudo Atoms    9 [       O]:  768 atoms
Pseudo Atoms   10 [       H]:  144 atoms
Pseudo Atoms   11 [       C]:   96 atoms


Current (initial full energy) Energy Status
===========================================================================

Internal energy:
Host stretch energy:                                            0.00000000
Host UreyBradley energy:                                        0.00000000
Host bend energy:                                               0.00000000
Host inversion-bend energy:                                     0.00000000
Host torsion energy:                                            0.00000000
Host improper torsion energy:                                   0.00000000
Host out-of-plane energy:                                       0.00000000
Host stretch/stretch energy:                                    0.00000000
Host bend/bend energy:                                          0.00000000
Host stretch/bend energy:                                       0.00000000
Host stretch/torsion energy:                                    0.00000000
Host bend/torsion energy:                                       0.00000000

Adsorbate stretch energy:                                       0.00000000
Adsorbate UreyBradley energy:                                   0.00000000
Adsorbate bend energy:                                          0.00000000
Adsorbate inversion-bend energy:                                0.00000000
Adsorbate torsion energy:                                       0.00000000
Adsorbate improper torsion energy:                              0.00000000
Adsorbate out-of-plane energy:                                  0.00000000
Adsorbate stretch/stretch energy:                               0.00000000
Adsorbate bend/bend energy:                                     0.00000000
Adsorbate stretch/bend energy:                                  0.00000000
Adsorbate stretch/torsion energy:                               0.00000000
Adsorbate bend/torsion energy:                                  0.00000000
Adsorbate intra VDW energy:                                     0.00000000
Adsorbate intra charge-charge Coulomb energy:                   0.00000000
Adsorbate intra charge-bonddipole Coulomb energy:               0.00000000
Adsorbate intra bonddipole-bonddipole Coulomb energy:           0.00000000

Cation stretch energy:                                          0.00000000
Cation UreyBradley energy:                                      0.00000000
Cation bend energy:                                             0.00000000
Cation inversion-bend energy:                                   0.00000000
Cation torsion energy:                                          0.00000000
Cation improper torsion energy:                                 0.00000000
Cation out-of-plane energy:                                     0.00000000
Cation stretch/stretch energy:                                  0.00000000
Cation bend/bend energy:                                        0.00000000
Cation stretch/bend energy:                                     0.00000000
Cation stretch/torsion energy:                                  0.00000000
Cation bend/torsion energy:                                     0.00000000
Cation intra VDW energy:                                        0.00000000
Cation intra charge-charge Coulomb energy:                      0.00000000
Cation intra charge-bonddipole Coulomb energy:                  0.00000000
Cation intra bonddipole-bonddipole Coulomb energy:              0.00000000

Host/Host energy:                                             0.00000000
	Host/Host VDW energy:                                         0.00000000
	Host/Host Coulomb energy:                                     0.00000000
	Host/Host charge-charge Real energy:                          0.00000000
	Host/Host charge-charge Fourier energy:                       0.00000000
	Host/Host charge-bonddipole Real energy:                      0.00000000
	Host/Host charge-bonddipole Fourier energy:                   0.00000000
	Host/Host bondipole-bonddipole Real energy:                   0.00000000
	Host/Host bondipole-bonddipole Fourier energy:                0.00000000

Host/Adsorbate energy:                                    -1682.92198933
	Host/Adsorbate VDW energy:                                -1573.23041546
	Host/Adsorbate Coulomb energy:                             -109.69157387
	Host/Adsorbate charge-charge Real energy:                    46.23407092
	Host/Adsorbate charge-charge Fourier energy:               -155.92564479
	Host/Adsorbate charge-bonddipole Real energy:                 0.00000000
	Host/Adsorbate charge-bonddipole Fourier energy:              0.00000000
	Host/Adsorbate bondipole-bonddipole Real energy:              0.00000000
	Host/Adsorbate bondipole-bonddipole Fourier energy:           0.00000000

Host/Cation energy:                                           0.00000000
	Host/Cation VDW energy:                                       0.00000000
	Host/Cation Coulomb energy:                                   0.00000000
	Host/Cation charge-charge Real energy:                        0.00000000
	Host/Cation charge-charge Fourier energy:                     0.00000000
	Host/Cation charge-bonddipole Real energy:                    0.00000000
	Host/Cation charge-bonddipole Fourier energy:                 0.00000000
	Host/Cation bondipole-bonddipole Real energy:                 0.00000000
	Host/Cation bondipole-bonddipole Fourier energy:              0.00000000

Adsorbate/Adsorbate energy:                                       -0.05575089
	Adsorbate/Adsorbate VDW energy:                                    0.00000000
	Adsorbate/Adsorbate Coulomb energy:                               -0.05575089
	Adsorbate/Adsorbate charge-charge Real energy:                     0.00000000
	Adsorbate/Adsorbate charge-charge Fourier energy:                 -0.05575089
	Adsorbate/Adsorbate charge-bonddipole Real energy:                 0.00000000
	Adsorbate/Adsorbate charge-bonddipole Fourier energy:              0.00000000
	Adsorbate/Adsorbate bondipole-bonddipole Real energy:              0.00000000
	Adsorbate/Adsorbate bondipole-bonddipole Fourier energy:           0.00000000

Adsorbate/Cation energy:                                           0.00000000
	Adsorbate/Cation VDW energy:                                       0.00000000
	Adsorbate/Cation Coulomb energy:                                   0.00000000
	Adsorbate/Cation charge-charge Real energy:                        0.00000000
	Adsorbate/Cation charge-charge Fourier energy:                     0.00000000
	Adsorbate/Cation charge-bonddipole Real energy:                    0.00000000
	Adsorbate/Cation charge-bonddipole Fourier energy:                 0.00000000
	Adsorbate/Cation bondipole-bonddipole Real energy:                 0.00000000
	Adsorbate/Cation bondipole-bonddipole Fourier energy:              0.00000000

Cation/Cation energy:                                           0.00000000
	Cation/Cation VDW energy:                                       0.00000000
	Cation/Cation Coulomb energy:                                   0.00000000
	Cation/Cation charge-charge Real energy:                        0.00000000
	Cation/Cation charge-charge Fourier energy:                     0.00000000
	Cation/Cation charge-bonddipole Real energy:                    0.00000000
	Cation/Cation charge-bonddipole Fourier energy:                 0.00000000
	Cation/Cation bondipole-bonddipole Real energy:                 0.00000000
	Cation/Cation bondipole-bonddipole Fourier energy:              0.00000000

Polarization energy:
	Host polarization energy:                                     0.00000000
	Adsorbate polarization energy:                                0.00000000
	Cation polarization energy:                                   0.00000000
	Host back-polarization energy:                                     0.00000000
	Adsorbate back-polarization energy:                                0.00000000
	Cation back-polarization energy:                                   0.00000000

Tail-correction energy:                                       0.00000000

Distance constraints energy:                                  0.00000000
Angle constraints energy:                                     0.00000000
Dihedral constraints energy:                                  0.00000000
Inversion-bend constraints energy:                            0.00000000
Out-of-plane distance constraints energy:                     0.00000000
Exclusion constraints energy:                                 0.00000000

===================================================================
Total energy: -1682.977740218613
	Total Van der Waals: -1573.230415
	Total Coulomb: -109.747325

	Total Polarization: 0.000000







+++++++++++++++++++++++++++++++++++++++++++++++++++++++++++++++++++++++++
Starting simulation
+++++++++++++++++++++++++++++++++++++++++++++++++++++++++++++++++++++++++

[Init] Current cycle: 0 out of 6000
========================================================================================================

Net charge: 3.88578e-16 (F: 3.88578e-16, A: 0, C: 0)
Current Box:  32.48820   0.00000  -2.21053 [A]
               0.00000  25.49300   0.00000 [A]
               0.00000   0.00000  24.69546 [A]
Box-lengths:  32.48820  25.49300  24.79420 Box-angles:   90.00000  95.11500  90.00000 [degrees]
Volume: 20453.31835 [A^3]

Loadings per component:
----------------------------------------------------------------------------------------------------------------------------------------------------
Component 0 (CO2), current number of integer/fractional/reaction molecules: 1/0/0, density:   3.57212 [kg/m^3]
	absolute adsorption:   0.08333 [mol/uc],         0.0427 [mol/kg],              1.8797 [mg/g]
	                                                 0.9576 [cm^3 STP/g],          1.8197 [cm^3 STP/cm^3]
	excess adsorption:     0.08333 [mol/uc],         0.0427 [mol/kg],              1.8797 [mg/g]
	                                                 0.9576 [cm^3 STP/g],          1.8197 [cm^3 STP/cm^3]
----------------------------------------------------------------------------------------------------------------------------------------------------
Degrees of freedom: 5 0 5 0
Number of Framework-atoms:   1248
Number of Adsorbates:           1 (1 integer, 0 fractional, 0 reaction)
Number of Cations:              0 (0 integer, 0 fractional, 0 reaction

Current total potential energy:             -1682.9777402186 [K]
	Current Host-Host energy:                     0.0000000000 [K]
	Current Host-Adsorbate energy:            -1682.9219893287 [K]
	Current Host-Cation energy:                   0.0000000000 [K]
	Current Adsorbate-Adsorbate energy:          -0.0557508899 [K]
	Current Cation-Cation energy:                 0.0000000000 [K]
	Current Adsorbate-Cation energy:              0.0000000000 [K]

WARNING: INAPPROPRIATE NUMBER OF UNIT CELLS USED


[Init] Current cycle: 5000 out of 6000
========================================================================================================

Net charge: 3.88578e-16 (F: 3.88578e-16, A: 0, C: 0)
Current Box:  32.48820   0.00000  -2.21053 [A]
               0.00000  25.49300   0.00000 [A]
               0.00000   0.00000  24.69546 [A]
Box-lengths:  32.48820  25.49300  24.79420 Box-angles:   90.00000  95.11500  90.00000 [degrees]
Volume: 20453.31835 [A^3]

Loadings per component:
----------------------------------------------------------------------------------------------------------------------------------------------------
Component 0 (CO2), current number of integer/fractional/reaction molecules: 1/0/0, density:   3.57212 [kg/m^3]
	absolute adsorption:   0.08333 [mol/uc],         0.0427 [mol/kg],              1.8797 [mg/g]
	                                                 0.9576 [cm^3 STP/g],          1.8197 [cm^3 STP/cm^3]
	excess adsorption:     0.08333 [mol/uc],         0.0427 [mol/kg],              1.8797 [mg/g]
	                                                 0.9576 [cm^3 STP/g],          1.8197 [cm^3 STP/cm^3]
----------------------------------------------------------------------------------------------------------------------------------------------------
Degrees of freedom: 5 0 5 0
Number of Framework-atoms:   1248
Number of Adsorbates:           1 (1 integer, 0 fractional, 0 reaction)
Number of Cations:              0 (0 integer, 0 fractional, 0 reaction

Current total potential energy:             -3345.6415801847 [K]
	Current Host-Host energy:                     0.0000000000 [K]
	Current Host-Adsorbate energy:            -3345.6236274315 [K]
	Current Host-Cation energy:                   0.0000000000 [K]
	Current Adsorbate-Adsorbate energy:          -0.0179527533 [K]
	Current Cation-Cation energy:                 0.0000000000 [K]
	Current Adsorbate-Cation energy:              0.0000000000 [K]

WARNING: INAPPROPRIATE NUMBER OF UNIT CELLS USED


Average Properties at Current cycle: 0 out of 10000
========================================================================================

Framework surface area:       0.0000000000 [m^2/g]        0.0000000000 [m^2/cm^3]       0.0000000000 [A^2]
	Framework 0 individual surface area:       0.0000000000 [m^2/g]        0.0000000000 [m^2/cm^3]       0.0000000000 [A^2]
	Cation surface area:                       0.0000000000 [m^2/g]        0.0000000000 [m^2/cm^3]       0.0000000000 [A^2]
Compressibility:       0.0000000000 [-]
Henry coefficients
	Component 0: 0 [mol/kg/Pa] (Rosenbluth factor new: 0 [-])
Energy <U_gh>_1-<U_h>_0 from Widom


Current cycle: 0 out of 10000
========================================================================================================

Net charge: 3.88578e-16 (F: 3.88578e-16, A: 0, C: 0)
Current Box:  32.48820   0.00000  -2.21053 [A]   Average Box:  32.48820   0.00000  -2.21053 [A]
               0.00000  25.49300   0.00000 [A]                  0.00000  25.49300   0.00000 [A]
               0.00000   0.00000  24.69546 [A]                  0.00000   0.00000  24.69546 [A]
Box-lengths:   32.48820  25.49300  24.79420 [A] Average:  32.48820  25.49300  24.79420 [A]
Box-angles:   90.00000  95.11500  90.00000 [degrees] Average:  90.00000  95.11500  90.00000 [degrees]
Volume: 20453.31835 [A^3] Average Volume: 20453.31835 [A^3]

Loadings per component:
----------------------------------------------------------------------------------------------------------------------------------------------------
Component 0 (CO2), current number of integer/fractional/reaction molecules: 1/0/0 (avg.   1.00000), density:   3.57212 (avg.   3.57212) [kg/m^3]
	absolute adsorption:   0.08333 (avg.   0.08333) [mol/uc],   0.0427221298 (avg.   0.0427221298) [mol/kg],   1.8797224439 (avg.   1.8797224439) [mg/g]
	                       0.9575727808 (avg.   0.9575727808) [cm^3 STP/g],    1.8197181563 (avg.   1.8197181563) [cm^3 STP/cm^3]
	excess adsorption:     0.0833333333 (avg.   0.0833333333) [mol/uc],   0.0427221298 (avg.   0.0427221298) [mol/kg],   1.8797224439 (avg.   1.8797224439) [mg/g]
	                       0.9575727808 (avg.   0.9575727808) [cm^3 STP/g],    1.8197181563 (avg.   1.8197181563) [cm^3 STP/cm^3]
----------------------------------------------------------------------------------------------------------------------------------------------------
Degrees of freedom: 5 0 5 0
Number of Framework-atoms:   1248
Number of Adsorbates:           1 (1 integer, 0 fractional, 0 reaction)
Number of Cations:              0 (0 integer, 0 fractional, 0 reaction)

Current total potential energy:             -3064.5009434793 [K]  (avg.       -3064.5009434793)
	Current Host-Host energy:                     0.0000000000 [K]  (avg.           0.0000000000)
	Current Host-Adsorbate energy:            -3064.5316977921 [K]  (avg.       -3064.5316977921)
	Current Host-Cation energy:                   0.0000000000 [K]  (avg.           0.0000000000)
	Current Adsorbate-Adsorbate energy:           0.0307543128 [K]  (avg.           0.0307543128)
	Current Cation-Cation energy:                 0.0000000000 [K]  (avg.           0.0000000000)
	Current Adsorbate-Cation energy:              0.0000000000 [K]  (avg.           0.0000000000)

WARNING: INAPPROPRIATE NUMBER OF UNIT CELLS USED


Current cycle: 5000 out of 10000
========================================================================================================

Net charge: 3.88578e-16 (F: 3.88578e-16, A: 0, C: 0)
Current Box:  32.48820   0.00000  -2.21053 [A]   Average Box:  32.48820   0.00000  -2.21053 [A]
               0.00000  25.49300   0.00000 [A]                  0.00000  25.49300   0.00000 [A]
               0.00000   0.00000  24.69546 [A]                  0.00000   0.00000  24.69546 [A]
Box-lengths:   32.48820  25.49300  24.79420 [A] Average:  32.48820  25.49300  24.79420 [A]
Box-angles:   90.00000  95.11500  90.00000 [degrees] Average:  90.00000  95.11500  90.00000 [degrees]
Volume: 20453.31835 [A^3] Average Volume: 20453.31835 [A^3]

Loadings per component:
----------------------------------------------------------------------------------------------------------------------------------------------------
Component 0 (CO2), current number of integer/fractional/reaction molecules: 1/0/0 (avg.   1.00000), density:   3.57212 (avg.   3.57212) [kg/m^3]
	absolute adsorption:   0.08333 (avg.   0.08333) [mol/uc],   0.0427221298 (avg.   0.0427221298) [mol/kg],   1.8797224439 (avg.   1.8797224439) [mg/g]
	                       0.9575727808 (avg.   0.9575727808) [cm^3 STP/g],    1.8197181563 (avg.   1.8197181563) [cm^3 STP/cm^3]
	excess adsorption:     0.0833333333 (avg.   0.0833333333) [mol/uc],   0.0427221298 (avg.   0.0427221298) [mol/kg],   1.8797224439 (avg.   1.8797224439) [mg/g]
	                       0.9575727808 (avg.   0.9575727808) [cm^3 STP/g],    1.8197181563 (avg.   1.8197181563) [cm^3 STP/cm^3]
----------------------------------------------------------------------------------------------------------------------------------------------------
Degrees of freedom: 5 0 5 0
Number of Framework-atoms:   1248
Number of Adsorbates:           1 (1 integer, 0 fractional, 0 reaction)
Number of Cations:              0 (0 integer, 0 fractional, 0 reaction)

Current total potential energy:             -3275.2345540149 [K]  (avg.       -3242.8767731951)
	Current Host-Host energy:                     0.0000000000 [K]  (avg.           0.0000000000)
	Current Host-Adsorbate energy:            -3275.1737410861 [K]  (avg.       -3242.8643220675)
	Current Host-Cation energy:                   0.0000000000 [K]  (avg.           0.0000000000)
	Current Adsorbate-Adsorbate energy:          -0.0608129289 [K]  (avg.          -0.0124511277)
	Current Cation-Cation energy:                 0.0000000000 [K]  (avg.           0.0000000000)
	Current Adsorbate-Cation energy:              0.0000000000 [K]  (avg.           0.0000000000)

WARNING: INAPPROPRIATE NUMBER OF UNIT CELLS USED


+++++++++++++++++++++++++++++++++++++++++++++++++++++++++++++++++++++++++
Finishing simulation
+++++++++++++++++++++++++++++++++++++++++++++++++++++++++++++++++++++++++




Current (running energy) Energy Status
===========================================================================

Internal energy:
Host stretch energy:                                            0.00000000
Host UreyBradley energy:                                        0.00000000
Host bend energy:                                               0.00000000
Host inversion-bend energy:                                     0.00000000
Host torsion energy:                                            0.00000000
Host improper torsion energy:                                   0.00000000
Host out-of-plane energy:                                       0.00000000
Host stretch/stretch energy:                                    0.00000000
Host bend/bend energy:                                          0.00000000
Host stretch/bend energy:                                       0.00000000
Host stretch/torsion energy:                                    0.00000000
Host bend/torsion energy:                                       0.00000000

Adsorbate stretch energy:                                       0.00000000
Adsorbate UreyBradley energy:                                   0.00000000
Adsorbate bend energy:                                          0.00000000
Adsorbate inversion-bend energy:                                0.00000000
Adsorbate torsion energy:                                       0.00000000
Adsorbate improper torsion energy:                              0.00000000
Adsorbate out-of-plane energy:                                  0.00000000
Adsorbate stretch/stretch energy:                               0.00000000
Adsorbate bend/bend energy:                                     0.00000000
Adsorbate stretch/bend energy:                                  0.00000000
Adsorbate stretch/torsion energy:                               0.00000000
Adsorbate bend/torsion energy:                                  0.00000000
Adsorbate intra VDW energy:                                     0.00000000
Adsorbate intra charge-charge Coulomb energy:                   0.00000000
Adsorbate intra charge-bonddipole Coulomb energy:               0.00000000
Adsorbate intra bonddipole-bonddipole Coulomb energy:           0.00000000

Cation stretch energy:                                          0.00000000
Cation UreyBradley energy:                                      0.00000000
Cation bend energy:                                             0.00000000
Cation inversion-bend energy:                                   0.00000000
Cation torsion energy:                                          0.00000000
Cation improper torsion energy:                                 0.00000000
Cation out-of-plane energy:                                     0.00000000
Cation stretch/stretch energy:                                  0.00000000
Cation bend/bend energy:                                        0.00000000
Cation stretch/bend energy:                                     0.00000000
Cation stretch/torsion energy:                                  0.00000000
Cation bend/torsion energy:                                     0.00000000
Cation intra VDW energy:                                        0.00000000
Cation intra charge-charge Coulomb energy:                      0.00000000
Cation intra charge-bonddipole Coulomb energy:                  0.00000000
Cation intra bonddipole-bonddipole Coulomb energy:              0.00000000

Host/Host energy:                                             0.00000000
	Host/Host VDW energy:                                         0.00000000
	Host/Host Coulomb energy:                                     0.00000000
	Host/Host charge-charge Real energy:                          0.00000000
	Host/Host charge-charge Fourier energy:                       0.00000000
	Host/Host charge-bonddipole Real energy:                      0.00000000
	Host/Host charge-bonddipole Fourier energy:                   0.00000000
	Host/Host bondipole-bonddipole Real energy:                   0.00000000
	Host/Host bondipole-bonddipole Fourier energy:                0.00000000

Host/Adsorbate energy:                                    -3205.43071846
	Host/Adsorbate VDW energy:                                -3183.01759339
	Host/Adsorbate Coulomb energy:                              -22.41312506
	Host/Adsorbate charge-charge Real energy:                    -1.58428606
	Host/Adsorbate charge-charge Fourier energy:                -20.82883901
	Host/Adsorbate charge-bonddipole Real energy:                 0.00000000
	Host/Adsorbate charge-bonddipole Fourier energy:              0.00000000
	Host/Adsorbate bondipole-bonddipole Real energy:              0.00000000
	Host/Adsorbate bondipole-bonddipole Fourier energy:           0.00000000

Host/Cation energy:                                           0.00000000
	Host/Cation VDW energy:                                       0.00000000
	Host/Cation Coulomb energy:                                   0.00000000
	Host/Cation charge-charge Real energy:                        0.00000000
	Host/Cation charge-charge Fourier energy:                     0.00000000
	Host/Cation charge-bonddipole Real energy:                    0.00000000
	Host/Cation charge-bonddipole Fourier energy:                 0.00000000
	Host/Cation bondipole-bonddipole Real energy:                 0.00000000
	Host/Cation bondipole-bonddipole Fourier energy:              0.00000000

Adsorbate/Adsorbate energy:                                        0.10389888
	Adsorbate/Adsorbate VDW energy:                                    0.00000000
	Adsorbate/Adsorbate Coulomb energy:                                0.10389888
	Adsorbate/Adsorbate charge-charge Real energy:                     0.00000000
	Adsorbate/Adsorbate charge-charge Fourier energy:                  0.10389888
	Adsorbate/Adsorbate charge-bonddipole Real energy:                 0.00000000
	Adsorbate/Adsorbate charge-bonddipole Fourier energy:              0.00000000
	Adsorbate/Adsorbate bondipole-bonddipole Real energy:              0.00000000
	Adsorbate/Adsorbate bondipole-bonddipole Fourier energy:           0.00000000

Adsorbate/Cation energy:                                           0.00000000
	Adsorbate/Cation VDW energy:                                       0.00000000
	Adsorbate/Cation Coulomb energy:                                   0.00000000
	Adsorbate/Cation charge-charge Real energy:                        0.00000000
	Adsorbate/Cation charge-charge Fourier energy:                     0.00000000
	Adsorbate/Cation charge-bonddipole Real energy:                    0.00000000
	Adsorbate/Cation charge-bonddipole Fourier energy:                 0.00000000
	Adsorbate/Cation bondipole-bonddipole Real energy:                 0.00000000
	Adsorbate/Cation bondipole-bonddipole Fourier energy:              0.00000000

Cation/Cation energy:                                           0.00000000
	Cation/Cation VDW energy:                                       0.00000000
	Cation/Cation Coulomb energy:                                   0.00000000
	Cation/Cation charge-charge Real energy:                        0.00000000
	Cation/Cation charge-charge Fourier energy:                     0.00000000
	Cation/Cation charge-bonddipole Real energy:                    0.00000000
	Cation/Cation charge-bonddipole Fourier energy:                 0.00000000
	Cation/Cation bondipole-bonddipole Real energy:                 0.00000000
	Cation/Cation bondipole-bonddipole Fourier energy:              0.00000000

Polarization energy:
	Host polarization energy:                                     0.00000000
	Adsorbate polarization energy:                                0.00000000
	Cation polarization energy:                                   0.00000000
	Host back-polarization energy:                                     0.00000000
	Adsorbate back-polarization energy:                                0.00000000
	Cation back-polarization energy:                                   0.00000000

Tail-correction energy:                                       0.00000000

Distance constraints energy:                                  0.00000000
Angle constraints energy:                                     0.00000000
Dihedral constraints energy:                                  0.00000000
Inversion-bend constraints energy:                            0.00000000
Out-of-plane distance constraints energy:                     0.00000000
Exclusion constraints energy:                                 0.00000000

===================================================================
Total energy: -3205.326819574493
	Total Van der Waals: -3183.017593
	Total Coulomb: -22.309226

	Total Polarization: 0.000000

Monte-Carlo moves statistics
===========================================================================

Performance of the small-MC scheme
==================================

Component 0 [CO2]
----------------------------------------------
Bead: 0
	maximum bond length change          : 0.300000
	bond length change acceptence       : 0.000000 [%]

Bead: 1
	maximum bond length change          : 0.300000
	bond length change acceptence       : 0.000000 [%]
	maximum change bend angle           : 0.300000
	change bend angle acceptence        : 0.000000 [%]

Bead: 2
	maximum bond length change          : 0.300000
	bond length change acceptence       : 0.000000 [%]



Performance of the translation move:
======================================
Component 0 [CO2]
	total        22226.000000 22362.000000 21879.000000
	succesfull   10892.000000 15851.000000 9571.000000
	accepted   0.490057 0.708836 0.437451
	displacement 0.960414 0.846704 0.642955


Random translation move was OFF for all components

Performance of the rotation move:
=================================
Component 0 [CO2]
	total        22300.000000 22345.000000 22229.000000
	succesfull   17031.000000 13765.000000 18619.000000
	accepted   0.763722 0.616021 0.837600
	angle-change 20.283756 42.583042 21.093750


Random rotation move was OFF for all components

Swap addition move was OFF for all components

Swap deletion move was OFF for all components

Performance of the Reinsertion move:
====================================
Component [CO2] total tried: 66659.000000 succesfull growth: 63083.000000 (94.635383 [%]) accepted: 8797.000000 (13.197018 [%])

Reinsertion-in-plane move was OFF for all components

Reinsertion-in-place move was OFF for all components

Partial reinsertion move was OFF for all components

Identity change move was OFF for all components

Parallel tempering move was OFF

Hyper parallel tempering move was OFF

Parallel mol-fraction move was OFF

Chiral inversion move was OFF

Volume move was OFF

Box shape change move was OFF

Framework change move was OFF

Framework shift move was OFF

Hybrid MC/MD move in the NVE-ensemble was OFF

Hybrid MC/MD in the NPH-ensemble move was OFF

Hybrid MC/MD in the NPH-ensemble (Parrinello-Rahman) move was OFF

Gibbs volume change move was OFF

Gibbs swap move was OFF for all components

Gibbs identity change move was OFF for all components

CFCMC swap lambda move was OFF for all components

CB/CFCMC swap lambda move was OFF for all components

CFCMC Gibbs lambda move was OFF for all components

CB/CFCMC Gibbs lambda move was OFF for all components

No reactions present, RXMC is OFF

Exchange fractional-particle move was OFF for all components

CFCMC Gibbs Lambda-change move was OFF for all components

CFCMC Gibbs Swap-Fractional-Molecule-To-Other-Box move was OFF for all components

CFCMC Gibbs Swap-Fractional-Molecule-To-Other-Box move was OFF for all components

CFCMC swap lambda move was OFF for all components

Gibbs Widom move was OFF for all components



Total CPU timings:
===========================================
initialization:            344.298445 [s]
equilibration:                      0 [s]
production run:            572.623946 [s]
total time:                916.922391 [s]

Production run CPU timings of the MC moves:
===========================================
Component: 0 (CO2)
	translation:                                 63.466901 [s]
	random translation:                                  0 [s]
	rotation:                                     64.88365 [s]
	random rotation:                                     0 [s]
	partial reinsertion:                                 0 [s]
	reinsertion:                                443.038225 [s]
	reinsertion in-place:                                0 [s]
	reinsertion in-plane:                                0 [s]
	identity switch:                                     0 [s]
	swap (insertion):                                    0 [s]
	swap (deletion):                                     0 [s]
	swap lambda (CFMC):                                  0 [s]
	swap lambda (CB/CFMC):                               0 [s]
	Widom:                                               0 [s]
	CF-Widom:                                            0 [s]
	Gibbs Widom:                                         0 [s]
	surface area:                                        0 [s]
	Gibbs particle transform:                            0 [s]
	Gibbs particle transform (CFMC):                     0 [s]
	Gibbs particle transform (CB/CFMC):                  0 [s]
	Gibbs indentity change:                              0 [s]
	Exchange fract./int. particle:                       0 [s]
	Swap Gibbs-fractional molecules:                     0 [s]
	Change Gibs-lambda value:                            0 [s]
	Convert Gibbs fract. to integer:                     0 [s]

Total all components:
	translation:                                 63.466901 [s]
	random translation:                                  0 [s]
	rotation:                                     64.88365 [s]
	random rotation:                                     0 [s]
	partial reinsertion:                                 0 [s]
	reinsertion:                                443.038225 [s]
	reinsertion in-place:                                0 [s]
	reinsertion in-plane:                                0 [s]
	identity switch:                                     0 [s]
	swap (insertion):                                    0 [s]
	swap (deletion):                                     0 [s]
	swap lambda (CFMC):                                  0 [s]
	swap lambda (CB/CFMC):                               0 [s]
	Widom:                                               0 [s]
	CF-Widom:                                            0 [s]
	Gibbs Widom:                                         0 [s]
	surface area:                                        0 [s]
	Gibbs particle transform:                            0 [s]
	Gibbs particle transform (CFMC):                     0 [s]
	Gibbs particle transform (CB/CFMC):                  0 [s]
	Gibbs identity change:                               0 [s]
	Exchange fract./int. particle:                       0 [s]
	Swap Gibbs-fractional molecules:                     0 [s]
	Change Gibs-lambda value:                            0 [s]
	Convert Gibbs fract. to integer:                     0 [s]

System moves:
	parallel tempering:                             0 [s]
	hyper parallel tempering:                       0 [s]
	mol-fraction replica-exchange:                  0 [s]
	chiral inversion:                               0 [s]
	hybrid MC/MD (NVE):                             0 [s]
	hybrid MC/MD (NPH):                             0 [s]
	hybrid MC/MD (NPHPR):                           0 [s]
	volume change:                                  0 [s]
	box change:                                     0 [s]
	Gibbs volume change:                            0 [s]
	framework change:                               0 [s]
	framework shift:                                0 [s]
	reaction MC move:                               0 [s]

Production run CPU timings of the MC moves summed over all systems and components:
==================================================================================

Particles moves:
	translation:                                 63.466901 [s]
	random translation:                                  0 [s]
	rotation:                                     64.88365 [s]
	random rotation:                                     0 [s]
	partial reinsertion:                                 0 [s]
	reinsertion:                                443.038225 [s]
	reinsertion in-place:                                0 [s]
	reinsertion in-plane:                                0 [s]
	identity switch:                                     0 [s]
	swap (insertion):                                    0 [s]
	swap (deletion):                                     0 [s]
	swap lambda (CFMC):                                  0 [s]
	swap lambda (CB/CFMC):                               0 [s]
	Widom:                                               0 [s]
	CF-Widom:                                            0 [s]
	Gibbs Widom:                                         0 [s]
	surface area:                                        0 [s]
	Gibbs particle transform:                            0 [s]
	Gibbs particle transform (CFMC):                     0 [s]
	Gibbs particle transform (CB/CFMC):                  0 [s]
	Gibbs indentity change:                              0 [s]
	Exchange frac./int. particle:                        0 [s]
	Swap Gibbs-fractional molecules:                     0 [s]
	Change Gibs-lambda value:                            0 [s]
	Convert Gibbs fract. to integer:                     0 [s]

System moves:
	parallel tempering:                             0 [s]
	hyper parallel tempering:                       0 [s]
	mol-fraction replica-exchange:                  0 [s]
	chiral inversion:                               0 [s]
	hybrid MC/MD (NVE):                             0 [s]
	hybrid MC/MD (NPH):                             0 [s]
	hybrid MC/MD (NPHPR):                           0 [s]
	volume change:                                  0 [s]
	box change:                                     0 [s]
	Gibbs volume change:                            0 [s]
	framework change:                               0 [s]
	framework shift:                                0 [s]
	reaction MC move:                               0 [s]





Current (full final energy) Energy Status
===========================================================================

Internal energy:
Host stretch energy:                                            0.00000000
Host UreyBradley energy:                                        0.00000000
Host bend energy:                                               0.00000000
Host inversion-bend energy:                                     0.00000000
Host torsion energy:                                            0.00000000
Host improper torsion energy:                                   0.00000000
Host out-of-plane energy:                                       0.00000000
Host stretch/stretch energy:                                    0.00000000
Host bend/bend energy:                                          0.00000000
Host stretch/bend energy:                                       0.00000000
Host stretch/torsion energy:                                    0.00000000
Host bend/torsion energy:                                       0.00000000

Adsorbate stretch energy:                                       0.00000000
Adsorbate UreyBradley energy:                                   0.00000000
Adsorbate bend energy:                                          0.00000000
Adsorbate inversion-bend energy:                                0.00000000
Adsorbate torsion energy:                                       0.00000000
Adsorbate improper torsion energy:                              0.00000000
Adsorbate out-of-plane energy:                                  0.00000000
Adsorbate stretch/stretch energy:                               0.00000000
Adsorbate bend/bend energy:                                     0.00000000
Adsorbate stretch/bend energy:                                  0.00000000
Adsorbate stretch/torsion energy:                               0.00000000
Adsorbate bend/torsion energy:                                  0.00000000
Adsorbate intra VDW energy:                                     0.00000000
Adsorbate intra charge-charge Coulomb energy:                   0.00000000
Adsorbate intra charge-bonddipole Coulomb energy:               0.00000000
Adsorbate intra bonddipole-bonddipole Coulomb energy:           0.00000000

Cation stretch energy:                                          0.00000000
Cation UreyBradley energy:                                      0.00000000
Cation bend energy:                                             0.00000000
Cation inversion-bend energy:                                   0.00000000
Cation torsion energy:                                          0.00000000
Cation improper torsion energy:                                 0.00000000
Cation out-of-plane energy:                                     0.00000000
Cation stretch/stretch energy:                                  0.00000000
Cation bend/bend energy:                                        0.00000000
Cation stretch/bend energy:                                     0.00000000
Cation stretch/torsion energy:                                  0.00000000
Cation bend/torsion energy:                                     0.00000000
Cation intra VDW energy:                                        0.00000000
Cation intra charge-charge Coulomb energy:                      0.00000000
Cation intra charge-bonddipole Coulomb energy:                  0.00000000
Cation intra bonddipole-bonddipole Coulomb energy:              0.00000000

Host/Host energy:                                             0.00000000
	Host/Host VDW energy:                                         0.00000000
	Host/Host Coulomb energy:                                     0.00000000
	Host/Host charge-charge Real energy:                          0.00000000
	Host/Host charge-charge Fourier energy:                       0.00000000
	Host/Host charge-bonddipole Real energy:                      0.00000000
	Host/Host charge-bonddipole Fourier energy:                   0.00000000
	Host/Host bondipole-bonddipole Real energy:                   0.00000000
	Host/Host bondipole-bonddipole Fourier energy:                0.00000000

Host/Adsorbate energy:                                    -3205.43071846
	Host/Adsorbate VDW energy:                                -3183.01759339
	Host/Adsorbate Coulomb energy:                              -22.41312506
	Host/Adsorbate charge-charge Real energy:                    -1.58428606
	Host/Adsorbate charge-charge Fourier energy:                -20.82883901
	Host/Adsorbate charge-bonddipole Real energy:                 0.00000000
	Host/Adsorbate charge-bonddipole Fourier energy:              0.00000000
	Host/Adsorbate bondipole-bonddipole Real energy:              0.00000000
	Host/Adsorbate bondipole-bonddipole Fourier energy:           0.00000000

Host/Cation energy:                                           0.00000000
	Host/Cation VDW energy:                                       0.00000000
	Host/Cation Coulomb energy:                                   0.00000000
	Host/Cation charge-charge Real energy:                        0.00000000
	Host/Cation charge-charge Fourier energy:                     0.00000000
	Host/Cation charge-bonddipole Real energy:                    0.00000000
	Host/Cation charge-bonddipole Fourier energy:                 0.00000000
	Host/Cation bondipole-bonddipole Real energy:                 0.00000000
	Host/Cation bondipole-bonddipole Fourier energy:              0.00000000

Adsorbate/Adsorbate energy:                                        0.10389888
	Adsorbate/Adsorbate VDW energy:                                    0.00000000
	Adsorbate/Adsorbate Coulomb energy:                                0.10389888
	Adsorbate/Adsorbate charge-charge Real energy:                     0.00000000
	Adsorbate/Adsorbate charge-charge Fourier energy:                  0.10389888
	Adsorbate/Adsorbate charge-bonddipole Real energy:                 0.00000000
	Adsorbate/Adsorbate charge-bonddipole Fourier energy:              0.00000000
	Adsorbate/Adsorbate bondipole-bonddipole Real energy:              0.00000000
	Adsorbate/Adsorbate bondipole-bonddipole Fourier energy:           0.00000000

Adsorbate/Cation energy:                                           0.00000000
	Adsorbate/Cation VDW energy:                                       0.00000000
	Adsorbate/Cation Coulomb energy:                                   0.00000000
	Adsorbate/Cation charge-charge Real energy:                        0.00000000
	Adsorbate/Cation charge-charge Fourier energy:                     0.00000000
	Adsorbate/Cation charge-bonddipole Real energy:                    0.00000000
	Adsorbate/Cation charge-bonddipole Fourier energy:                 0.00000000
	Adsorbate/Cation bondipole-bonddipole Real energy:                 0.00000000
	Adsorbate/Cation bondipole-bonddipole Fourier energy:              0.00000000

Cation/Cation energy:                                           0.00000000
	Cation/Cation VDW energy:                                       0.00000000
	Cation/Cation Coulomb energy:                                   0.00000000
	Cation/Cation charge-charge Real energy:                        0.00000000
	Cation/Cation charge-charge Fourier energy:                     0.00000000
	Cation/Cation charge-bonddipole Real energy:                    0.00000000
	Cation/Cation charge-bonddipole Fourier energy:                 0.00000000
	Cation/Cation bondipole-bonddipole Real energy:                 0.00000000
	Cation/Cation bondipole-bonddipole Fourier energy:              0.00000000

Polarization energy:
	Host polarization energy:                                     0.00000000
	Adsorbate polarization energy:                                0.00000000
	Cation polarization energy:                                   0.00000000
	Host back-polarization energy:                                     0.00000000
	Adsorbate back-polarization energy:                                0.00000000
	Cation back-polarization energy:                                   0.00000000

Tail-correction energy:                                       0.00000000

Distance constraints energy:                                  0.00000000
Angle constraints energy:                                     0.00000000
Dihedral constraints energy:                                  0.00000000
Inversion-bend constraints energy:                            0.00000000
Out-of-plane distance constraints energy:                     0.00000000
Exclusion constraints energy:                                 0.00000000

===================================================================
Total energy: -3205.326819572710
	Total Van der Waals: -3183.017593
	Total Coulomb: -22.309226

	Total Polarization: 0.000000



Energy-drift status
===========================================================================

Internal energy:
Host stretch energy-drift:                                           0
Host UreyBradley energy-drift:                                       0
Host bend energy-drift:                                              0
Host inversion-bend energy-drift:                                    0
[...]
	Block[ 4]            0.00000 [K]
	------------------------------------------------------------------------------
	Average              0.00000 [K] +/-            0.00000 [K]

Average Cation Bend angle inversion energy:
===========================================
	Block[ 0]            0.00000 [K]
	Block[ 1]            0.00000 [K]
	Block[ 2]            0.00000 [K]
	Block[ 3]            0.00000 [K]
	Block[ 4]            0.00000 [K]
	------------------------------------------------------------------------------
	Average              0.00000 [K] +/-            0.00000 [K]

Average Cation Torsion energy:
==============================
	Block[ 0]            0.00000 [K]
	Block[ 1]            0.00000 [K]
	Block[ 2]            0.00000 [K]
	Block[ 3]            0.00000 [K]
	Block[ 4]            0.00000 [K]
	------------------------------------------------------------------------------
	Average              0.00000 [K] +/-            0.00000 [K]

Average Cation Improper Torsion energy:
=======================================
	Block[ 0]            0.00000 [K]
	Block[ 1]            0.00000 [K]
	Block[ 2]            0.00000 [K]
	Block[ 3]            0.00000 [K]
	Block[ 4]            0.00000 [K]
	------------------------------------------------------------------------------
	Average              0.00000 [K] +/-            0.00000 [K]

Average Cation Bond-Bond cross term energy:
=================================================
	Block[ 0]            0.00000 [K]
	Block[ 1]            0.00000 [K]
	Block[ 2]            0.00000 [K]
	Block[ 3]            0.00000 [K]
	Block[ 4]            0.00000 [K]
	------------------------------------------------------------------------------
	Average              0.00000 [K] +/-            0.00000 [K]

Average Cation Bend-Bend cross term energy:
===========================================
	Block[ 0]            0.00000 [K]
	Block[ 1]            0.00000 [K]
	Block[ 2]            0.00000 [K]
	Block[ 3]            0.00000 [K]
	Block[ 4]            0.00000 [K]
	------------------------------------------------------------------------------
	Average              0.00000 [K] +/-            0.00000 [K]

Average Cation Bond-Bend cross term energy:
==============================================
	Block[ 0]            0.00000 [K]
	Block[ 1]            0.00000 [K]
	Block[ 2]            0.00000 [K]
	Block[ 3]            0.00000 [K]
	Block[ 4]            0.00000 [K]
	------------------------------------------------------------------------------
	Average              0.00000 [K] +/-            0.00000 [K]

Average Cation Bond-Torsion cross term energy:
==============================================
	Block[ 0]            0.00000 [K]
	Block[ 1]            0.00000 [K]
	Block[ 2]            0.00000 [K]
	Block[ 3]            0.00000 [K]
	Block[ 4]            0.00000 [K]
	------------------------------------------------------------------------------
	Average              0.00000 [K] +/-            0.00000 [K]

Average Cation Bend-Torsion cross term energy:
==============================================
	Block[ 0]            0.00000 [K]
	Block[ 1]            0.00000 [K]
	Block[ 2]            0.00000 [K]
	Block[ 3]            0.00000 [K]
	Block[ 4]            0.00000 [K]
	------------------------------------------------------------------------------
	Average              0.00000 [K] +/-            0.00000 [K]

Average Cation Intra Van der Waals energy:
==========================================
	Block[ 0]            0.00000 [K]
	Block[ 1]            0.00000 [K]
	Block[ 2]            0.00000 [K]
	Block[ 3]            0.00000 [K]
	Block[ 4]            0.00000 [K]
	------------------------------------------------------------------------------
	Average              0.00000 [K] +/-            0.00000 [K]

Average Cation Intra charge-charge Coulomb energy:
====================================
	Block[ 0]            0.00000 [K]
	Block[ 1]            0.00000 [K]
	Block[ 2]            0.00000 [K]
	Block[ 3]            0.00000 [K]
	Block[ 4]            0.00000 [K]
	------------------------------------------------------------------------------
	Average              0.00000 [K] +/-            0.00000 [K]

Average Cation Intra charge-bonddipole Coulomb energy:
====================================
	Block[ 0]            0.00000 [K]
	Block[ 1]            0.00000 [K]
	Block[ 2]            0.00000 [K]
	Block[ 3]            0.00000 [K]
	Block[ 4]            0.00000 [K]
	------------------------------------------------------------------------------
	Average              0.00000 [K] +/-            0.00000 [K]

Average Cation Intra bonddipole-bonddipole Coulomb energy:
====================================
	Block[ 0]            0.00000 [K]
	Block[ 1]            0.00000 [K]
	Block[ 2]            0.00000 [K]
	Block[ 3]            0.00000 [K]
	Block[ 4]            0.00000 [K]
	------------------------------------------------------------------------------
	Average              0.00000 [K] +/-            0.00000 [K]

Average Host-Host energy:
=========================
	Block[ 0] 0.00000            Van der Waals: 0.00000            Coulomb: 0.00000            [K]
	Block[ 1] 0.00000            Van der Waals: 0.00000            Coulomb: 0.00000            [K]
	Block[ 2] 0.00000            Van der Waals: 0.00000            Coulomb: 0.00000            [K]
	Block[ 3] 0.00000            Van der Waals: 0.00000            Coulomb: 0.00000            [K]
	Block[ 4] 0.00000            Van der Waals: 0.00000            Coulomb: 0.00000            [K]
	------------------------------------------------------------------------------
	Average   0.00000            Van der Waals: 0.000000           Coulomb: 0.00000            [K]
	      +/- 0.00000                       +/- 0.000000                +/- 0.00000            [K]

Average Adsorbate-Adsorbate energy:
===================================
	Block[ 0] -0.01178           Van der Waals: 0.00000            Coulomb: -0.01178           [K]
	Block[ 1] -0.01195           Van der Waals: 0.00000            Coulomb: -0.01195           [K]
	Block[ 2] -0.01405           Van der Waals: 0.00000            Coulomb: -0.01405           [K]
	Block[ 3] -0.01098           Van der Waals: 0.00000            Coulomb: -0.01098           [K]
	Block[ 4] -0.01211           Van der Waals: 0.00000            Coulomb: -0.01211           [K]
	------------------------------------------------------------------------------
	Average   -0.01218           Van der Waals: 0.000000           Coulomb: -0.01218           [K]
	      +/- 0.00141                       +/- 0.000000                +/- 0.00141            [K]

Average Cation-Cation energy:
=============================
	Block[ 0] 0.00000            Van der Waals: 0.00000            Coulomb: 0.00000            [K]
	Block[ 1] 0.00000            Van der Waals: 0.00000            Coulomb: 0.00000            [K]
	Block[ 2] 0.00000            Van der Waals: 0.00000            Coulomb: 0.00000            [K]
	Block[ 3] 0.00000            Van der Waals: 0.00000            Coulomb: 0.00000            [K]
	Block[ 4] 0.00000            Van der Waals: 0.00000            Coulomb: 0.00000            [K]
	------------------------------------------------------------------------------
	Average   0.00000            Van der Waals: 0.000000           Coulomb: 0.00000            [K]
	      +/- 0.00000                       +/- 0.000000                +/- 0.00000            [K]

Average Host-Adsorbate energy:
==============================
	Block[ 0] -3235.00620        Van der Waals: -2996.45405        Coulomb: -238.55215         [K]
	Block[ 1] -3238.04530        Van der Waals: -2998.66227        Coulomb: -239.38303         [K]
	Block[ 2] -3250.92212        Van der Waals: -3019.20981        Coulomb: -231.71232         [K]
	Block[ 3] -3240.38178        Van der Waals: -2997.10415        Coulomb: -243.27762         [K]
	Block[ 4] -3252.23099        Van der Waals: -3025.29174        Coulomb: -226.93925         [K]
	------------------------------------------------------------------------------
	Average   -3243.31728        Van der Waals: -3007.344405       Coulomb: -235.97287         [K]
	      +/- 9.67174                       +/- 17.131953               +/- 8.12662            [K]

Average Host-Cation energy:
===========================
	Block[ 0] 0.00000            Van der Waals: 0.00000            Coulomb: 0.00000            [K]
	Block[ 1] 0.00000            Van der Waals: 0.00000            Coulomb: 0.00000            [K]
	Block[ 2] 0.00000            Van der Waals: 0.00000            Coulomb: 0.00000            [K]
	Block[ 3] 0.00000            Van der Waals: 0.00000            Coulomb: 0.00000            [K]
	Block[ 4] 0.00000            Van der Waals: 0.00000            Coulomb: 0.00000            [K]
	------------------------------------------------------------------------------
	Average   0.00000            Van der Waals: 0.000000           Coulomb: 0.00000            [K]
	      +/- 0.00000                       +/- 0.000000                +/- 0.00000            [K]

Average Adsorbate-Cation energy:
================================
	Block[ 0] 0.00000            Van der Waals: 0.00000            Coulomb: 0.00000            [K]
	Block[ 1] 0.00000            Van der Waals: 0.00000            Coulomb: 0.00000            [K]
	Block[ 2] 0.00000            Van der Waals: 0.00000            Coulomb: 0.00000            [K]
	Block[ 3] 0.00000            Van der Waals: 0.00000            Coulomb: 0.00000            [K]
	Block[ 4] 0.00000            Van der Waals: 0.00000            Coulomb: 0.00000            [K]
	------------------------------------------------------------------------------
	Average   0.00000            Van der Waals: 0.000000           Coulomb: 0.00000            [K]
	      +/- 0.00000                       +/- 0.000000                +/- 0.00000            [K]

Host polarization energy:
=======================
	Block[ 0]            0.00000 [K]
	Block[ 1]            0.00000 [K]
	Block[ 2]            0.00000 [K]
	Block[ 3]            0.00000 [K]
	Block[ 4]            0.00000 [K]
	------------------------------------------------------------------------------
	Average              0.00000 [K] +/-            0.00000 [K]

Adsorbate polarization energy:
=======================
	Block[ 0]            0.00000 [K]
	Block[ 1]            0.00000 [K]
	Block[ 2]            0.00000 [K]
	Block[ 3]            0.00000 [K]
	Block[ 4]            0.00000 [K]
	------------------------------------------------------------------------------
	Average              0.00000 [K] +/-            0.00000 [K]

Cation polarization energy:
=======================
	Block[ 0]            0.00000 [K]
	Block[ 1]            0.00000 [K]
	Block[ 2]            0.00000 [K]
	Block[ 3]            0.00000 [K]
	Block[ 4]            0.00000 [K]
	------------------------------------------------------------------------------
	Average              0.00000 [K] +/-            0.00000 [K]

Host back-polarization energy:
=======================
	Block[ 0]            0.00000 [K]
	Block[ 1]            0.00000 [K]
	Block[ 2]            0.00000 [K]
	Block[ 3]            0.00000 [K]
	Block[ 4]            0.00000 [K]
	------------------------------------------------------------------------------
	Average              0.00000 [K] +/-            0.00000 [K]

Adsorbate back-polarization energy:
=======================
	Block[ 0]            0.00000 [K]
	Block[ 1]            0.00000 [K]
	Block[ 2]            0.00000 [K]
	Block[ 3]            0.00000 [K]
	Block[ 4]            0.00000 [K]
	------------------------------------------------------------------------------
	Average              0.00000 [K] +/-            0.00000 [K]

Cation back-polarization energy:
=======================
	Block[ 0]            0.00000 [K]
	Block[ 1]            0.00000 [K]
	Block[ 2]            0.00000 [K]
	Block[ 3]            0.00000 [K]
	Block[ 4]            0.00000 [K]
	------------------------------------------------------------------------------
	Average              0.00000 [K] +/-            0.00000 [K]

Tail-correction energy:
=======================
	Block[ 0]            0.00000 [K]
	Block[ 1]            0.00000 [K]
	Block[ 2]            0.00000 [K]
	Block[ 3]            0.00000 [K]
	Block[ 4]            0.00000 [K]
	------------------------------------------------------------------------------
	Average              0.00000 [K] +/-            0.00000 [K]

Distance-constraints energy:
=======================
	Block[ 0]            0.00000 [K]
	Block[ 1]            0.00000 [K]
	Block[ 2]            0.00000 [K]
	Block[ 3]            0.00000 [K]
	Block[ 4]            0.00000 [K]
	------------------------------------------------------------------------------
	Average              0.00000 [K] +/-            0.00000 [K]

Angle-constraints energy:
=======================
	Block[ 0]            0.00000 [K]
	Block[ 1]            0.00000 [K]
	Block[ 2]            0.00000 [K]
	Block[ 3]            0.00000 [K]
	Block[ 4]            0.00000 [K]
	------------------------------------------------------------------------------
	Average              0.00000 [K] +/-            0.00000 [K]

Dihedral-constraints energy:
=======================
	Block[ 0]            0.00000 [K]
	Block[ 1]            0.00000 [K]
	Block[ 2]            0.00000 [K]
	Block[ 3]            0.00000 [K]
	Block[ 4]            0.00000 [K]
	------------------------------------------------------------------------------
	Average              0.00000 [K] +/-            0.00000 [K]

Inversion-bend constraints energy:
=======================
	Block[ 0]            0.00000 [K]
	Block[ 1]            0.00000 [K]
	Block[ 2]            0.00000 [K]
	Block[ 3]            0.00000 [K]
	Block[ 4]            0.00000 [K]
	------------------------------------------------------------------------------
	Average              0.00000 [K] +/-            0.00000 [K]

Out-of-plane-distance constraints energy:
=======================
	Block[ 0]            0.00000 [K]
	Block[ 1]            0.00000 [K]
	Block[ 2]            0.00000 [K]
	Block[ 3]            0.00000 [K]
	Block[ 4]            0.00000 [K]
	------------------------------------------------------------------------------
	Average              0.00000 [K] +/-            0.00000 [K]

Exclusion-constraints energy:
=======================
	Block[ 0]            0.00000 [K]
	Block[ 1]            0.00000 [K]
	Block[ 2]            0.00000 [K]
	Block[ 3]            0.00000 [K]
	Block[ 4]            0.00000 [K]
	------------------------------------------------------------------------------
	Average              0.00000 [K] +/-            0.00000 [K]

Total energy:
=============
	Block[ 0]        -3235.01799 [K]
	Block[ 1]        -3238.05725 [K]
	Block[ 2]        -3250.93618 [K]
	Block[ 3]        -3240.39275 [K]
	Block[ 4]        -3252.24310 [K]
	------------------------------------------------------------------------------
	Average          -3243.32946 [K] +/-            9.67260 [K]

Number of molecules:
====================

Component 0 [CO2]
-------------------------------------------------------------
	Block[ 0] 1.00000            [-]
	Block[ 1] 1.00000            [-]
	Block[ 2] 1.00000            [-]
	Block[ 3] 1.00000            [-]
	Block[ 4] 1.00000            [-]
	------------------------------------------------------------------------------
	Average loading absolute                              1.0000000000 +/-       0.0000000219 [-]
	Average loading absolute [molecules/unit cell]        0.0833333333 +/-       0.0000000018 [-]
	Average loading absolute [mol/kg framework]                  0.0427221298 +/-       0.0000000009 [-]
	Average loading absolute [milligram/gram framework]          1.8797224439 +/-       0.0000000412 [-]
	Average loading absolute [cm^3 (STP)/gr framework]           0.9575727808 +/-       0.0000000210 [-]
	Average loading absolute [cm^3 (STP)/cm^3 framework]         1.8197181563 +/-       0.0000000399 [-]

	Block[ 0] 1.00000            [-]
	Block[ 1] 1.00000            [-]
	Block[ 2] 1.00000            [-]
	Block[ 3] 1.00000            [-]
	Block[ 4] 1.00000            [-]
	------------------------------------------------------------------------------
	Average loading excess                              1.0000000000 +/-       0.0000000219 [-]
	Average loading excess [molecules/unit cell]        0.0833333333 +/-       0.0000000018 [-]
	Average loading excess [mol/kg framework]                    0.0427221298 +/-       0.0000000009 [-]
	Average loading excess [milligram/gram framework]            1.8797224439 +/-       0.0000000412 [-]
	Average loading excess [cm^3 (STP)/gr framework]             0.9575727808 +/-       0.0000000210 [-]
	Average loading excess [cm^3 (STP)/cm^3 framework]           1.8197181563 +/-       0.0000000399 [-]


Average Widom Rosenbluth factor:
================================
	Block[ 0] 0 [-]
	Block[ 1] 0 [-]
	Block[ 2] 0 [-]
	Block[ 3] 0 [-]
	Block[ 4] 0 [-]
	------------------------------------------------------------------------------
	[CO2] Average Widom Rosenbluth-weight:   0 +/- 0.000000 [-]

Average Widom chemical potential:
=================================
	Block[ 0] 0 [-]
	Block[ 1] 0 [-]
	Block[ 2] 0 [-]
	Block[ 3] 0 [-]
	Block[ 4] 0 [-]
	------------------------------------------------------------------------------
	[CO2] Average chemical potential:   0 +/- 0.000000 [K]

Average Widom Ideal-gas contribution:
=====================================
	Block[ 0] 0 [-]
	Block[ 1] 0 [-]
	Block[ 2] 0 [-]
	Block[ 3] 0 [-]
	Block[ 4] 0 [-]
	------------------------------------------------------------------------------
	[CO2] Average Widom Ideal-gas chemical potential:   0 +/- 0.000000 [-]

Average Widom excess contribution:
==================================
	Block[ 0] 0 [-]
	Block[ 1] 0 [-]
	Block[ 2] 0 [-]
	Block[ 3] 0 [-]
	Block[ 4] 0 [-]
	------------------------------------------------------------------------------
	[CO2] Average Widom excess chemical potential:   0 +/- 0.000000 [-]

Average Gibbs Widom Rosenbluth factor:
======================================
	Block[ 0] 0 [-]
	Block[ 1] 0 [-]
	Block[ 2] 0 [-]
	Block[ 3] 0 [-]
	Block[ 4] 0 [-]
	------------------------------------------------------------------------------
	[CO2] Average Gibbs Widom Rosenbluth-weight:   0 +/- 0.000000 [-]

Average Gibbs Widom chemical potential:
=======================================
	Block[ 0] 0 [-]
	Block[ 1] 0 [-]
	Block[ 2] 0 [-]
	Block[ 3] 0 [-]
	Block[ 4] 0 [-]
	------------------------------------------------------------------------------
	[CO2] Average Gibbs chemical potential:   0 +/- 0.000000 [K]

Average Gibbs Widom Ideal-gas contribution:
===========================================
	Block[ 0] 0 [-]
	Block[ 1] 0 [-]
	Block[ 2] 0 [-]
	Block[ 3] 0 [-]
	Block[ 4] 0 [-]
	------------------------------------------------------------------------------
	[CO2] Average Gibbs Ideal-gas chemical potential:   0 +/- 0.000000 [-]

Average Gibbs Widom excess contribution:
===========================================
	Block[ 0] 0 [-]
	Block[ 1] 0 [-]
	Block[ 2] 0 [-]
	Block[ 3] 0 [-]
	Block[ 4] 0 [-]
	------------------------------------------------------------------------------
	[CO2] Average Gibbs excess chemical potential:   0 +/- 0.000000 [-]

Average Henry coefficient:
==========================
	Block[ 0] 0 [mol/kg/Pa]
	Block[ 1] 0 [mol/kg/Pa]
	Block[ 2] 0 [mol/kg/Pa]
	Block[ 3] 0 [mol/kg/Pa]
	Block[ 4] 0 [mol/kg/Pa]
	------------------------------------------------------------------------------
	[CO2] Average Henry coefficient:  0 +/- 0 [mol/kg/Pa]

Average adsorption energy <U_gh>_1-<U_h>_0 obtained from Widom-insertion:
(Note: the total heat of adsorption is dH=<U_gh>_1-<U_h>_0 - <U_g> - RT)
=========================================================================

Simulation finished,  1 warnings
WARNING: INAPPROPRIATE NUMBER OF UNIT CELLS USED


Thu Sep 15 21:18:49 2022
Simulation finished on Thursday, September 15.
The end time was 09:18 PM.

