# vtk DataFile Version 1.0
Cube
ASCII

DATASET POLYDATA
POINTS 12 float
11.242981 -1.359213 0.049055
11.183009 -2.276035 -0.659070
11.123037 -3.192858 -1.367194
11.242981 -1.359213 36.356255
11.183009 -2.276035 35.648130
11.123037 -3.192858 34.940006
11.242981 32.972587 0.049055
11.183009 32.055765 -0.659070
11.123037 31.138942 -1.367194
11.242981 32.972587 36.356255
11.183009 32.055765 35.648130
11.123037 31.138942 34.940006
LINES 8 24
2 0 1
2 1 2
2 3 4
2 4 5
2 6 7
2 7 8
2 9 10
2 10 11
POINT_DATA 12
SCALARS my_scalars float
LOOKUP_TABLE default
1.52
1.7
1.52
1.52
1.7
1.52
1.52
1.7
1.52
1.52
1.7
1.52
VECTORS vectors float
0.03125 0 0
0.3125 0 0
0.03125 0 0
0.03125 0 0
0.3125 0 0
0.03125 0 0
0.03125 0 0
0.3125 0 0
0.03125 0 0
0.03125 0 0
0.3125 0 0
0.03125 0 0
