# vtk DataFile Version 1.0
Cube
ASCII

DATASET POLYDATA
POINTS 4 float
22.848448 0.525335 0.422482
22.848448 0.525335 26.462282
22.848448 28.115935 0.422482
22.848448 28.115935 26.462282
LINES 0 0
POINT_DATA 4
SCALARS my_scalars float
LOOKUP_TABLE default
1.7
1.7
1.7
1.7
VECTORS vectors float
0.3125 0 0
0.3125 0 0
0.3125 0 0
0.3125 0 0
