# vtk DataFile Version 1.0
Cube
ASCII

DATASET POLYDATA
POINTS 2 float
10.337341 14.859695 0.389268
-4.745408 3.071320 26.815887
LINES 0 0
POINT_DATA 2
SCALARS my_scalars float
LOOKUP_TABLE default
1.7
1.7
VECTORS vectors float
0.3125 0 0
0.3125 0 0
