# vtk DataFile Version 1.0
Cube
ASCII

DATASET POLYDATA
POINTS 2 float
LINES 0 0
POINT_DATA 2
SCALARS my_scalars float
LOOKUP_TABLE default
VECTORS vectors float
