Compiler and run-time data
===========================================================================
RASPA 2.0.46
Compiled as a 64-bits application
Compiler: gcc 9.3.0
Compile Date = Aug 10 2021, Compile Time = 14:28:38

Thu Jun 23 04:27:20 2022
Simulation started on Thursday, June 23.
The start time was 04:27 AM.

Hostname:    lsmob101683
OS type:     Linux on x86_64
OS release:  5.13.0-51-generic
OS version:  #58~20.04.1-Ubuntu SMP Tue Jun 14 11:29:12 UTC 2022

Simulation
===========================================================================
Dimensions: 3
Random number seed: 1655951240
RASPA directory set to: /home/xiaoqi/RASPA/simulations
String appended to output-files: 
Number of cycles: 6000
Number of initializing cycles: 4000
Number of equilibration cycles: 0
Print every: 1000
Rectangular boundary condition applied
Timestep: 0.000500
	Degrees of freedom:                        3
	Translational Degrees of freedom:          3
	Rotational Degrees of freedom:             0
	Degrees of freedom Framework:              0


Mutual consistent basic set of units:
======================================
Unit of temperature: Kelvin
Unit of length:      1e-10 [m]
Unit of time:        1e-12 [s]
Unit of mass:        1.66054e-27 [kg]
Unit of charge:      1.60218e-19 [C/particle]

Derived units and their conversion factors:
===========================================
Unit of energy:              1.66054e-23 [J]
Unit of force:               1.66054e-13 [N]
Unit of pressure:            1.66054e+07 [Pa]
Unit of velocity:            100 [m/s]
Unit of acceleration:        1e-08 [m^2/s]
Unit of diffusion:           1e-08 [m^2/s]
Unit of dipole moment:       1.60218e-29 [C.m]
Unit of electric potential:  0.000103643 [V]
Unit of electric field:      1.03643e+06 [V]
Unit of polarizability:      1.54587e-35 [-]
Unit of Coulomb potential:   167101.0800066561  [K]
Unit of dielectric constant: 0.0000154587       [s^2 C^2/(kg m^3)]
Unit of wave vectors:        5.3088374589       [cm^1]
Boltzmann constant:          0.8314464919       [-]

Internal conversion factors:
===========================================
Energy to Kelvin:                                    1.2027242847
FH correction factor                                 2.0211930949
Heat capacity conversion factor:                    10.0000088723
From Debye to internal units:                        4.8032067991
Isothermal compressibility conversion factor:        0.0000000602

Energy conversion factors:
===========================================
From mdyne/A to kcal/mol/A^2:           143.933
From mdyne/A to kj/mol/A^2:             602.214
From mdyne/A to K/A^2:                  72429.7
From mdyne A/rad^2 to kcal/mol/deg^2:   0.0438444


Properties computed
===========================================================================
Movies: yes
	Movie snapshots are appended to file every 10 cycles
Radial Distribution Function: no
Number of molecules GCMC histogram: no
Histogram of the molecule positions: no
Free energy profiles: no
Pore Size Distribution Function: no
End-to-end distance: no
Histogram of the energy of the system: no
Compute thermodynamic factors: no
Framework spacing histograms: no
Residence times histograms: no
Distance histograms: no
Bend Angle histograms: no
Dihedral angle histograms: no
Angle between planes histograms: no
Molecule properties: no
Infra-red spectra: no
Mean-squared displacement using modified order-N algorithm: no
Velocity-autocorrelation function modified order-N algorithm: no
Rotational velocity-autocorrelation function modified order-N algorithm: no
Molecular orientation-autocorrelation function modified order-N algorithm: no
Bond orientation-autocorrelation function modified order-N algorithm: no
Mean-squared displacement (conventional algorithm): no
Velocity-autocorrelation function (conventional algorithm): no
3D density grid for adsorbates: no
Compute cation an/or adsorption sites: no
dcTST snapshots: no
Compute pressure and stress: no


VTK
===========================================================================
VTK fractional-range position framework atoms: [-0.001000,1.001000] [-0.001000,1.001000] [-0.001000,1.001000]
VTK fractional-range position framework bonds: [-0.151000,1.151000] [-0.151000,1.151000] [-0.151000,1.151000]
VTK fractional-range com-position adsorbate molecules: [-0.101000,1.101000] [-0.101000,1.101000] [-0.101000,1.101000]
VTK fractional-range com-position cation molecules: [-0.101000,1.101000] [-0.101000,1.101000] [-0.101000,1.101000]
	3D free energy grid made for the full simulation-cell


Thermo/Baro-stat NHC parameters
===========================================================================
External temperature: 298 [K]
Beta: 0.00403598 [energy unit]
External Pressure: 0 [Pa]


Thermostat chain-length: 3
Timescale parameter for thermostat: 0.150000 [ps]
Barostat chain-length:   3
Timescale parameter for barostat:   0.150000 [ps]

Number of Yoshida-Suzuki decomposition steps: 5
Number of respa steps: 5


Method and settings for electrostatics
===============================================================================
Dielectric constant of the medium : 1.000000
Charge from charge-equilibration: no
Ewald summation is used (exact solution of a periodic system)
Relative precision                : 1e-06
Alpha convergence parameter       : 0.265058
kvec (x,y,z)                      : 8 8 9


CFC-RXMC parameters
===========================================================================
Number of reactions: 0


Rattle parameters
===========================================================================
Distance constraint type: r^2-r^2_0
Bend angle constraint type: theta-theta_0
Dihedral angle constraint type: phi-phi_0
Inversion-bend angle constraint type: chi-chi_0
Out-of-plane distance constraint type: r-r_0


Spectra parameters
===========================================================================
Compute normal modes: no


Minimization parameters
===========================================================================
Generalized coordinates are: Cartesian center-of-mass, elements of the orientational matrix p1,p2,p3 and strain
Potential derivatives are evaluated: analytically
Translation of the system is removed from the generalized Hessian: no
Rotation of the system is removed from the generalized Hessian: no
Maximum step-length: 0.3
Convergence factor: 1
Maximum number of minimization steps: 10000
Use gradients in the line-minimizations: yes
RMS gradient tolerance: 1e-06
Maximum gradient tolerance: 1e-06

Distance constraints: 0
Angle constraints: 0
Dihedral constraints: 0

Improper dihedral constraints: 0

Inversion-bend constraints: 0

Out-of-plane constraints: 0

Harmonic distance constraints: 0
Harmonic angle constraints: 0
Harmonic dihedral constraints: 0

Dihedral mid-point measurements: 0

All framework atoms are fixed

Fixed adsorbate atoms:  
Fixed adsorbate groups (center-of-mass):  
Fixed adsorbate groups (orientation):  

Fixed cation atoms:  
Fixed cation groups (center-of-mass):  
Fixed cation groups (orientation):  


dcTST parameters
===========================================================================
Free energy profiles computed: no
Free energy profiles written every 5000 cycles
Free energy mapping: mapped to a,b,c-coordinates
BarrierPosition:       0.0000000000       0.0000000000       0.0000000000
BarrierNormal:         0.0000000000       0.0000000000       0.0000000000
Start with a molecule on top of the barrier: no
Maximum distance to barrier (e.g. distance to minumum free energy):       0.0000000000 [A]
Maximum trajectory time:      10.0000000000 [ps]
Each configuration is used with 5 different initial velocities


Cbmc parameters
===========================================================================
Biasing method: using only the VDW part
Number of trial positions:                                       10
Number of trial positions (reinsertion):                         10
Number of trial positions (partial reinsertion):                 10
Number of trial positions (identity-change):                     10
Number of trial positions (Gibbs particle transfer):             10
Number of trial positions (insertion/deletion):                  10
Number of trial positions (Widom insertion):                     10
Number of trial positions coupled Torsion-selection:             100
Number of trial positions first bead:                            10
Number of trial positions first bead (reinsertion):              10
Number of trial positions first bead (partial reinsertion):      10
Number of trial positions first bead (identity-change):          10
Number of trial positions first bead (Gibbs particle transfer):  10
Number of trial positions first bead (insertion/deletion):       10
Number of trial positions first bead (Widom insertion):          10
Number of trial moves per open bead:                             150
Target acceptance ratio small-mc scheme:                         0.400000
Energy overlap criteria:                                         1e+07
Minimal Rosenbluth factor:                                       1e-150


Pseudo atoms: 12
===========================================================================
Pseudo Atom[   0] Name UNIT     Oxidation:          Element: H    pdb-name: H    Scat. Types:   1   1 Mass=1.000000000  B-factor:0.000   
                 Charge=1.000000000          Polarization=0.000000000  [A^3] (considered a charged atom and no polarization)  Interactions: yes
                 Anisotropic factor:    0.000 [-] (Absolute), Radius:    1.000 [A], Framework-atom:  no
Pseudo Atom[   1] Name CH4_sp3  Oxidation: +0       Element: C    pdb-name: C    Scat. Types:   7   6 Mass=16.042460000 B-factor:1.000   
                 Charge=0.000000000          Polarization=0.000000000  [A^3] (considered a chargeless atom and no polarization)  Interactions: yes
                 Anisotropic factor:    0.000 [-] (Relative), Radius:    1.000 [A], Framework-atom:  no
Pseudo Atom[   2] Name C_co2    Oxidation: +0       Element: C    pdb-name: C    Scat. Types:   7   6 Mass=12.000000000 B-factor:1.000   
                 Charge=0.700000000          Polarization=0.000000000  [A^3] (considered a charged atom and no polarization)  Interactions: yes
                 Anisotropic factor:    0.000 [-] (Relative), Radius:    0.720 [A], Framework-atom:  no
Pseudo Atom[   3] Name O_co2    Oxidation: +0       Element: O    pdb-name: O    Scat. Types:   9   8 Mass=15.999400000 B-factor:1.000   
                 Charge=-0.350000000         Polarization=0.000000000  [A^3] (considered a charged atom and no polarization)  Interactions: yes
                 Anisotropic factor:    0.000 [-] (Relative), Radius:    0.680 [A], Framework-atom:  no
Pseudo Atom[   4] Name N_n2     Oxidation: +0       Element: N    pdb-name: N    Scat. Types:   8   7 Mass=14.006740000 B-factor:1.000   
                 Charge=-0.482000000         Polarization=0.000000000  [A^3] (considered a charged atom and no polarization)  Interactions: yes
                 Anisotropic factor:    0.000 [-] (Relative), Radius:    0.700 [A], Framework-atom:  no
Pseudo Atom[   5] Name N_com    Oxidation: +0       Element: -    pdb-name: N    Scat. Types:   0   7 Mass=0.000000000  B-factor:1.000   
                 Charge=0.964000000          Polarization=0.000000000  [A^3] (considered a charged atom and no polarization)  Interactions: yes
                 Anisotropic factor:    0.000 [-] (Relative), Radius:    0.700 [A], Framework-atom:  no
Pseudo Atom[   6] Name N_com    Oxidation: +0       Element: -    pdb-name: N    Scat. Types:   0   7 Mass=0.000000000  B-factor:1.000   
                 Charge=0.964000000          Polarization=0.000000000  [A^3] (considered a charged atom and no polarization)  Interactions: yes
                 Anisotropic factor:    0.000 [-] (Relative), Radius:    0.700 [A], Framework-atom:  no
Pseudo Atom[   7] Name S        Oxidation:          Element: S    pdb-name: S    Scat. Types:  17  14 Mass=32.064787235 B-factor:0.000   
                 Charge=-0.015875000   (av)  Polarization=2.900000000  [A^3] (considered a charged atom and no polarization)  Interactions: yes
                 Anisotropic factor:    0.000 [-] (Absolute), Radius:    1.040 [A], Framework-atom: yes (charge from structure file)
Pseudo Atom[   8] Name N        Oxidation:          Element: N    pdb-name: N    Scat. Types:   8   7 Mass=14.006703212 B-factor:0.000   
                 Charge=-0.183875000   (av)  Polarization=1.100000000  [A^3] (considered a charged atom and no polarization)  Interactions: yes
                 Anisotropic factor:    0.000 [-] (Absolute), Radius:    0.710 [A], Framework-atom: yes (charge from structure file)
Pseudo Atom[   9] Name C        Oxidation:          Element: C    pdb-name: C    Scat. Types:   7   6 Mass=12.010735897 B-factor:0.000   
                 Charge=-0.006900000   (av)  Polarization=1.760000000  [A^3] (considered a charged atom and no polarization)  Interactions: yes
                 Anisotropic factor:    0.000 [-] (Absolute), Radius:    0.750 [A], Framework-atom: yes (charge from structure file)
Pseudo Atom[  10] Name H        Oxidation:          Element: H    pdb-name: H    Scat. Types:   1   1 Mass=1.007940754  B-factor:0.000   
                 Charge=0.047500000    (av)  Polarization=0.666793000  [A^3] (considered a charged atom and no polarization)  Interactions: yes
                 Anisotropic factor:    0.000 [-] (Absolute), Radius:    0.320 [A], Framework-atom: yes (charge from structure file)
Pseudo Atom[  11] Name Ag       Oxidation:          Element: Ag   pdb-name: Ag   Scat. Types:  48  47 Mass=107.868150845 B-factor:0.000   
                 Charge=0.557000000    (av)  Polarization=7.200000000  [A^3] (considered a charged atom and no polarization)  Interactions: yes
                 Anisotropic factor:    0.000 [-] (Absolute), Radius:    1.360 [A], Framework-atom: yes (charge from structure file)


Forcefield: UFFTraPPE
===========================================================================
Minimal distance: 1
CutOff VDW : 12.800000 (163.840000)
CutOff VDW switching on: 11.520000 (132.710400)
CutOff charge-charge : 12.000000 (144.000000)
CutOff charge-charge switching on: 7.800000 (60.840000)
CutOff charge-bonddipole : 12.000000 (144.000000)
CutOff charge-bondipole switching on: 8.400000 (70.560000)
CutOff bonddipole-bonddipole : 12.000000 (144.000000)
CutOff bonddipole-bondipole switching on: 9.000000 (81.000000)
Polarization is neglected
All potentials are shifted to zero at the Cutoff

General mixing rule: Lorentz-Berthelot mixing rules are used FIRST for cross terms
0 cross terms are overwritten using the individual mixing rules from the file 'force_field_mixing_rules.def'
and then 0 terms are overwritten using the specific interactions from the file 'force_field.def'

The force field and all the interactions:
CH4_sp3 - CH4_sp3 [LENNARD_JONES] p_0/k_B: 148.00000 [K], p_1: 3.73000 [A], shift/k_B:  -0.36228376 [K], tailcorrection: no
CH4_sp3 -   C_co2 [LENNARD_JONES] p_0/k_B:  63.21392 [K], p_1: 3.26500 [A], shift/k_B:  -0.06962936 [K], tailcorrection: no
CH4_sp3 -   O_co2 [LENNARD_JONES] p_0/k_B: 108.12955 [K], p_1: 3.39000 [A], shift/k_B:  -0.14920826 [K], tailcorrection: no
CH4_sp3 -    N_n2 [LENNARD_JONES] p_0/k_B:  72.99315 [K], p_1: 3.52000 [A], shift/k_B:  -0.12622645 [K], tailcorrection: no
CH4_sp3 -   N_com [ZERO_POTENTIAL]
CH4_sp3 -   N_com [ZERO_POTENTIAL]
CH4_sp3 -       S [LENNARD_JONES] p_0/k_B: 142.85885 [K], p_1: 3.66240 [A], shift/k_B:  -0.31337448 [K], tailcorrection: no
CH4_sp3 -       N [LENNARD_JONES] p_0/k_B:  71.68963 [K], p_1: 3.49535 [A], shift/k_B:  -0.11885581 [K], tailcorrection: no
CH4_sp3 -       C [LENNARD_JONES] p_0/k_B:  88.43550 [K], p_1: 3.58045 [A], shift/k_B:  -0.16937309 [K], tailcorrection: no
CH4_sp3 -       H [LENNARD_JONES] p_0/k_B:  57.24768 [K], p_1: 3.15055 [A], shift/k_B:  -0.05090726 [K], tailcorrection: no
CH4_sp3 -      Ag [LENNARD_JONES] p_0/k_B:  51.78257 [K], p_1: 3.26725 [A], shift/k_B:  -0.05727404 [K], tailcorrection: no
  C_co2 -   C_co2 [LENNARD_JONES] p_0/k_B:  27.00000 [K], p_1: 2.80000 [A], shift/k_B:  -0.01183217 [K], tailcorrection: no
  C_co2 -   O_co2 [LENNARD_JONES] p_0/k_B:  46.18441 [K], p_1: 2.92500 [A], shift/k_B:  -0.02630201 [K], tailcorrection: no
  C_co2 -    N_n2 [LENNARD_JONES] p_0/k_B:  31.17691 [K], p_1: 3.05500 [A], shift/k_B:  -0.02304731 [K], tailcorrection: no
  C_co2 -   N_com [ZERO_POTENTIAL]
  C_co2 -   N_com [ZERO_POTENTIAL]
  C_co2 -       S [LENNARD_JONES] p_0/k_B:  61.01803 [K], p_1: 3.19740 [A], shift/k_B:  -0.05928361 [K], tailcorrection: no
  C_co2 -       N [LENNARD_JONES] p_0/k_B:  30.62016 [K], p_1: 3.03035 [A], shift/k_B:  -0.02156194 [K], tailcorrection: no
  C_co2 -       C [LENNARD_JONES] p_0/k_B:  37.77267 [K], p_1: 3.11545 [A], shift/k_B:  -0.03140597 [K], tailcorrection: no
  C_co2 -       H [LENNARD_JONES] p_0/k_B:  24.45169 [K], p_1: 2.68555 [A], shift/k_B:  -0.00834203 [K], tailcorrection: no
  C_co2 -      Ag [LENNARD_JONES] p_0/k_B:  22.11743 [K], p_1: 2.80225 [A], shift/k_B:  -0.00973931 [K], tailcorrection: no
  O_co2 -   O_co2 [LENNARD_JONES] p_0/k_B:  79.00000 [K], p_1: 3.05000 [A], shift/k_B:  -0.05782915 [K], tailcorrection: no
  O_co2 -    N_n2 [LENNARD_JONES] p_0/k_B:  53.32917 [K], p_1: 3.18000 [A], shift/k_B:  -0.05014476 [K], tailcorrection: no
  O_co2 -   N_com [ZERO_POTENTIAL]
  O_co2 -   N_com [ZERO_POTENTIAL]
  O_co2 -       S [LENNARD_JONES] p_0/k_B: 104.37341 [K], p_1: 3.32240 [A], shift/k_B:  -0.12763468 [K], tailcorrection: no
  O_co2 -       N [LENNARD_JONES] p_0/k_B:  52.37681 [K], p_1: 3.15535 [A], shift/k_B:  -0.04700315 [K], tailcorrection: no
  O_co2 -       C [LENNARD_JONES] p_0/k_B:  64.61143 [K], p_1: 3.24045 [A], shift/k_B:  -0.06801851 [K], tailcorrection: no
  O_co2 -       H [LENNARD_JONES] p_0/k_B:  41.82545 [K], p_1: 2.81055 [A], shift/k_B:  -0.01874735 [K], tailcorrection: no
  O_co2 -      Ag [LENNARD_JONES] p_0/k_B:  37.83261 [K], p_1: 2.92725 [A], shift/k_B:  -0.02164528 [K], tailcorrection: no
   N_n2 -    N_n2 [LENNARD_JONES] p_0/k_B:  36.00000 [K], p_1: 3.31000 [A], shift/k_B:  -0.04304679 [K], tailcorrection: no
   N_n2 -   N_com [ZERO_POTENTIAL]
   N_n2 -   N_com [ZERO_POTENTIAL]
   N_n2 -       S [LENNARD_JONES] p_0/k_B:  70.45755 [K], p_1: 3.45240 [A], shift/k_B:  -0.10846438 [K], tailcorrection: no
   N_n2 -       N [LENNARD_JONES] p_0/k_B:  35.35711 [K], p_1: 3.28535 [A], shift/k_B:  -0.04042431 [K], tailcorrection: no
   N_n2 -       C [LENNARD_JONES] p_0/k_B:  43.61612 [K], p_1: 3.37045 [A], shift/k_B:  -0.05813394 [K], tailcorrection: no
   N_n2 -       H [LENNARD_JONES] p_0/k_B:  28.23438 [K], p_1: 2.94055 [A], shift/k_B:  -0.01659916 [K], tailcorrection: no
   N_n2 -      Ag [LENNARD_JONES] p_0/k_B:  25.53901 [K], p_1: 3.05725 [A], shift/k_B:  -0.01896310 [K], tailcorrection: no
  N_com -   N_com [ZERO_POTENTIAL]
  N_com -   N_com [ZERO_POTENTIAL]
  N_com -       S [ZERO_POTENTIAL]
  N_com -       N [ZERO_POTENTIAL]
  N_com -       C [ZERO_POTENTIAL]
  N_com -       H [ZERO_POTENTIAL]
  N_com -      Ag [ZERO_POTENTIAL]
  N_com -   N_com [ZERO_POTENTIAL]
  N_com -       S [ZERO_POTENTIAL]
  N_com -       N [ZERO_POTENTIAL]
  N_com -       C [ZERO_POTENTIAL]
  N_com -       H [ZERO_POTENTIAL]
  N_com -      Ag [ZERO_POTENTIAL]
      S -       S [LENNARD_JONES] p_0/k_B: 137.89630 [K], p_1: 3.59480 [A], shift/k_B:  -0.27051294 [K], tailcorrection: no
      S -       N [LENNARD_JONES] p_0/k_B:  69.19932 [K], p_1: 3.42775 [A], shift/k_B:  -0.10204615 [K], tailcorrection: no
      S -       C [LENNARD_JONES] p_0/k_B:  85.36348 [K], p_1: 3.51285 [A], shift/k_B:  -0.14582914 [K], tailcorrection: no
      S -       H [LENNARD_JONES] p_0/k_B:  55.25904 [K], p_1: 3.08295 [A], shift/k_B:  -0.04314372 [K], tailcorrection: no
      S -      Ag [LENNARD_JONES] p_0/k_B:  49.98377 [K], p_1: 3.19965 [A], shift/k_B:  -0.04876835 [K], tailcorrection: no
      N -       N [LENNARD_JONES] p_0/k_B:  34.72570 [K], p_1: 3.26070 [A], shift/k_B:  -0.03794876 [K], tailcorrection: no
      N -       C [LENNARD_JONES] p_0/k_B:  42.83722 [K], p_1: 3.34580 [A], shift/k_B:  -0.05463649 [K], tailcorrection: no
      N -       H [LENNARD_JONES] p_0/k_B:  27.73017 [K], p_1: 2.91590 [A], shift/k_B:  -0.01549986 [K], tailcorrection: no
      N -      Ag [LENNARD_JONES] p_0/k_B:  25.08293 [K], p_1: 3.03260 [A], shift/k_B:  -0.01774158 [K], tailcorrection: no
      C -       C [LENNARD_JONES] p_0/k_B:  52.84350 [K], p_1: 3.43090 [A], shift/k_B:  -0.07835722 [K], tailcorrection: no
      C -       H [LENNARD_JONES] p_0/k_B:  34.20762 [K], p_1: 3.00100 [A], shift/k_B:  -0.02272202 [K], tailcorrection: no
      C -      Ag [LENNARD_JONES] p_0/k_B:  30.94201 [K], p_1: 3.11770 [A], shift/k_B:  -0.02583830 [K], tailcorrection: no
      H -       H [LENNARD_JONES] p_0/k_B:  22.14390 [K], p_1: 2.57110 [A], shift/k_B:  -0.00581754 [K], tailcorrection: no
      H -      Ag [LENNARD_JONES] p_0/k_B:  20.02995 [K], p_1: 2.68780 [A], shift/k_B:  -0.00686791 [K], tailcorrection: no
     Ag -      Ag [LENNARD_JONES] p_0/k_B:  18.11780 [K], p_1: 2.80450 [A], shift/k_B:  -0.00801660 [K], tailcorrection: no


MoleculeDefinitions:
===========================================================================
Component 0 [methane] (Adsorbate molecule)

	MoleculeDefinitions: UFFTraPPE
	Component contains no atoms with charge
	Component contains no atoms with point dipoles (polarization)
	Component has a net charge of 0.000000

	Ideal chain Rosenbluth weight: 1
	Ideal chain total energy: 0.000000

	Critical temparure [K]: 190.564000
	Critical pressure [Pa]: 4599200.000000
	Acentric factor [-]: 0.011420

	RXMC partition factor ln(q/V) [ln(A^(-3))]:       0.0000000000

	Vapour=stable, Liquid=metastable

	MolFraction:           1.0000000000 [-]
	Compressibility:       0.0000000000 [-]

	Density of the bulk fluid phase:       0.0000000000 [kg/m^3]


	Amount of excess molecules:       0.0000000000 [-]

	Conversion factor molecules/unit cell -> mol/kg:       0.9251851668 [-]
	Conversion factor molecules/unit cell -> mg/g:      14.8422460315 [-]
	Conversion factor molecules/unit cell -> cm^3 STP/gr:      20.7370778914 [-]
	Conversion factor molecules/unit cell -> cm^3 STP/cm^3:      31.5609937759 [-]
	Conversion factor mol/kg -> cm^3 STP/gr:      22.4139757476 [-]
	Conversion factor mol/kg -> cm^3 STP/cm^3:      34.1131644858 [-]

	Partial pressure: -16605402.00000000000000 [Pa]
	                    -124540.51499999999942 [Torr]
	                       -166.05402000000001 [bar]
	                       -163.88257586972614 [atm]

	Fugacity coefficient:      -1.0000000000 [-]

	Partial fugacity:  16605402.00000000000000 [Pa]
	                     124540.51499999999942 [Torr]
	                        166.05402000000001 [bar]
	                        163.88257586972614 [atm]

	Molecule contains 1 number of atoms
		atom:    0  is of type:    1 [   CH4_sp3] (group: 0)

	Molecule contains 0 chirality centers

	Molecule contains 1 number of groups

		group: 0 containing: 1 elements
		-------------------------------------------------
		the group is modelled as flexible, i.e. no constraints
		Mass: 16.042460 [a.u.]
		Mass: 1.129465 [kg/m^3]

		Rotational Degrees of freedom: 0
		Diagonalized inertia vector:       0.0000000000
		                                   0.0000000000
		                                   0.0000000000
		element: 0 atom: 0 [   CH4_sp3] Charge:  0.000000 Anisotropy: 0.000000 Connectivity: 0 ()

		Dipole:           0.0000000000 [D]
		Quadrupole:       0.0000000000       0.0000000000       0.0000000000 [D Angstrom]
		Quadrupole tensor [D Angstrom]
				       0.0000000000       0.0000000000       0.0000000000
				       0.0000000000       0.0000000000       0.0000000000
				       0.0000000000       0.0000000000       0.0000000000

	Starting bead for growth               : 0

	Degrees of freedom                     : 0
	Translational degrees of freedom       : 0
	Rotational degrees of freedom          : 0
	Vibrational degrees of freedom         : 0
	Constraint degrees of freedom          : 0

	Number of atoms                        : 1

	Number of constraint bonds             : 0
	Number of constraint bends             : 0
	Number of constraint inversion bends   : 0
	Number of constraint torsions          : 0
	Number of constraint improper torsions : 0
	Number of constraint improper torsions : 0

	Number of bonds                        : 0
	Number of Urey-Bradleys                : 0
	Number of bends                        : 0
	Number of inversion bends              : 0
	Number of torsions                     : 0
	Number of improper torsions            : 0
	Number of improper torsions            : 0

	Number of bond/bond cross terms        : 0
	Number of bond/bend cross terms        : 0
	Number of bend/bend cross terms        : 0
	Number of stretch/torsion cross terms  : 0
	Number of bend/torsion cross terms     : 0

	Number of charges                      : 0
	Number of bond-dipoles                 : 0

	Number of intra Van der Waals                             : 0
	Number of intra charge-charge Coulomb                     : 0
	Number of intra charge-bonddipole Coulomb                 : 0
	Number of intra bonddipole-bonddipole Coulomb             : 0

	Number of excluded intra charge-charge Coulomb                     : 0
	Number of excluded intra charge-bonddipole Coulomb                 : 0
	Number of excluded intra bonddipole-bonddipole Coulomb             : 0

	Number of cbmc-config moves                               : 0

	Particle Moves:             
		ProbabilityTranslationMove:                  33.333333
			TranslationDirection:      XYZ
		Percentage of random translation moves:            0.000000
		Percentage of rotation moves:                      33.333333
		Percentage of random rotation moves:               0.000000
		Percentage of partial reinsertion moves:           0.000000
		Percentage of reinsertion moves:                   33.333333
		Percentage of reinsertion-in-place moves:          0.000000
		Percentage of reinsertion-in-plane moves:          0.000000
		Percentage of identity-change moves:               0.000000
		Percentage of swap (insert/delete) moves:          0.000000
		Percentage of CF swap lambda moves:                0.000000
		Percentage of CB/CFMC swap lambda moves:           0.000000
		Percentage of Widom insertion moves:               0.000000
		Percentage of CF-Widom insertion moves:            0.000000
		Percentage of Gibbs Widom insertion moves:         0.000000
		Percentage of surface-area moves:                  0.000000
		Percentage of Gibbs particle-transfer moves:       0.000000
		Percentage of Gibbs identity-change moves:         0.000000
		Percentage of CF Gibbs lambda-transfer moves:      0.000000
		Percentage of CB/CFMC Gibbs lambda-transfer moves: 0.000000
		Percentage of exchange frac./int. particle moves:  0.000000
		Percentage of fractional mol. to other box moves:  0.000000
		Percentage of lambda-change moves:                 0.000000
		Percentage of fractional to integer moves:         0.000000

	System Moves:
		Percentage of parallel-tempering moves:            0.000000
		Percentage of hyper-parallel-tempering moves:      0.000000
		Percentage of parallel-mol-fraction moves:         0.000000
			   Component A: 0 B: 1
		Percentage of chiral inversion moves:              0.000000
		Percentage of Hybrid-NVE moves:                    0.000000
		Percentage of Hybrid-NPH moves:                    0.000000
		Percentage of Hybrid-NPHPR moves:                  0.000000
		Percentage of volume-change moves:                 0.000000
		Percentage of box-shape-change moves:              0.000000
		Percentage of Gibbs volume-change moves:           0.000000
		Percentage of framework-change moves:              0.000000
		Percentage of framework-shift moves:               0.000000
		Percentage of reactive MC moves:                   0.000000

	Moves are restricted: No
	No biased sampling used for this component


	number of identity-config changes: 1
	--------------------------------------------
	nr fixed 1: 0 

	Number of pockets blocked in a unitcell: 0
		Pockets are NOT blocked for this component



Framework Status
===========================================================================
Lowenstein's rule obeyed by framework
	Framework is modelled as: rigid

	Number of charges:                               1480
	Number of bonddipoles:                           0


System Properties
===========================================================================
Unit cell size: 13.834000 13.834000 6.162000
Cell angles (radians)  alpha: 1.570796 beta: 1.570796 gamma: 1.570796
Cell angles (degrees)  alpha: 90.000000 beta: 90.000000 gamma: 90.000000
Number of unitcells [a]: 2
Number of unitcells [b]: 2
Number of unitcells [c]: 5

RECTANGULAR Boundary conditions: alpha=beta=gamma=90 degrees

Cartesian axis A is collinear with crystallographic axis a
Cartesian axis B is collinear with (axb)xA
Cartesian axis C is collinear with (axb)

lengths of cell vectors:
 27.66800  27.66800  30.81000
cosines of cell angles:
  0.00000   0.00000   0.00000
perpendicular cell widths:
 27.66800  27.66800  30.81000
volume of the cell: 23585.616481439996 (A^3)

Orthogonalization matrix Box
Transforms fractional coordinates abc into orthonormal Cartesian coordinates xyz
Deorthogonalization matrix InverseBox
Transforms orthonormal Cartesian coordinates xyz into fractional coordinates xyz

Box[0]:
	   27.668000000000     0.000000000000     0.000000000000
	    0.000000000000    27.668000000000     0.000000000000
	    0.000000000000     0.000000000000    30.810000000000

Inverse box[0]:
	    0.036142836490    -0.000000000000    -0.000000000000
	    0.000000000000     0.036142836490    -0.000000000000
	    0.000000000000     0.000000000000     0.032456994482


Unitcell box[0]:
	   13.834000000000     0.000000000000     0.000000000000
	    0.000000000000    13.834000000000     0.000000000000
	    0.000000000000     0.000000000000     6.162000000000

Unitcell inverse box[0]:
	    0.072285672980    -0.000000000000    -0.000000000000
	    0.000000000000     0.072285672980    -0.000000000000
	    0.000000000000     0.000000000000     0.162284972412

lengths of cell vectors (inverse box):
  0.03614   0.03614   0.03246
cosines of cell angles (inverse box):
 -0.00000  -0.00000  -0.00000
perpendicular cell widths (inverse):
  0.03614   0.03614   0.03246
volume of the cell: 23585.616481439996 (A^3)

No replicas are used
Framework is simulated as 'rigid'
Number of framework atoms: 1480
Number of framework atoms in the unit cell: 74
Framework Mass: 21617.294263918557 [g/mol]
Framework Density:  1521.959551931334 [kg/m^3]    0.6570476848291 [cm^3/g]
Helium void fraction:    0.00000000
Available pore volume:    0.00000000 [A^3]    0.00000000 [cm^3/g]
Conversion factor from molecule/unit cell -> kmol/m^3: 0.0704047, kmol/m^3 accesible pore volume: inf

Number Of Frameworks (per system): 1
----------------------------------------------------------------------
Framework name: XOPKOD_clean
Space group: 1
	Identifier: 1
	short international Hermann-Mauguin symbol: P 1
	long international Hermann-Mauguin symbol: P 1
	Hall symbol: P 1
	Number of lattice translations: 1 [ (0,0,0) ]
	acentric/centric: acentric
	chiral: no
	enantiomorphic: no
	number of operators: 1
		'x,y,z'
Framework is simulated as 'rigid'
Shift: 0.000000 0.000000 0.000000
Number of framework atoms: 1480
Number of asymmetric atoms: 74
Number of free framework atoms: 0
Number of fixed framework atoms: 1480
Number of framework atoms in the unit cell: 74
Framework Mass: 21617.294263918557 [g/mol]
Framework Density:  1521.959551931334 [kg/m^3]
Framework has net charge: 0.000000
         largest charge : 0.557000
         smallest charge: -0.184000

Using FULL Host-guest interaction calculation (for testing purposes)

Current Atom Status
===========================================================================
Number of framework atoms        : 1480
Number of cations molecules      : 0
Number of adsorbate molecules    : 1
Component    0 :    1 molecules
Pseudo Atoms    0 [    UNIT]:    0 atoms
Pseudo Atoms    1 [ CH4_sp3]:    1 atoms
Pseudo Atoms    2 [   C_co2]:    0 atoms
Pseudo Atoms    3 [   O_co2]:    0 atoms
Pseudo Atoms    4 [    N_n2]:    0 atoms
Pseudo Atoms    5 [   N_com]:    0 atoms
Pseudo Atoms    6 [   N_com]:    0 atoms
Pseudo Atoms    7 [       S]:  160 atoms
Pseudo Atoms    8 [       N]:  160 atoms
Pseudo Atoms    9 [       C]:  800 atoms
Pseudo Atoms   10 [       H]:  320 atoms
Pseudo Atoms   11 [      Ag]:   40 atoms


Current (initial full energy) Energy Status
===========================================================================

Internal energy:
Host stretch energy:                                            0.00000000
Host UreyBradley energy:                                        0.00000000
Host bend energy:                                               0.00000000
Host inversion-bend energy:                                     0.00000000
Host torsion energy:                                            0.00000000
Host improper torsion energy:                                   0.00000000
Host out-of-plane energy:                                       0.00000000
Host stretch/stretch energy:                                    0.00000000
Host bend/bend energy:                                          0.00000000
Host stretch/bend energy:                                       0.00000000
Host stretch/torsion energy:                                    0.00000000
Host bend/torsion energy:                                       0.00000000

Adsorbate stretch energy:                                       0.00000000
Adsorbate UreyBradley energy:                                   0.00000000
Adsorbate bend energy:                                          0.00000000
Adsorbate inversion-bend energy:                                0.00000000
Adsorbate torsion energy:                                       0.00000000
Adsorbate improper torsion energy:                              0.00000000
Adsorbate out-of-plane energy:                                  0.00000000
Adsorbate stretch/stretch energy:                               0.00000000
Adsorbate bend/bend energy:                                     0.00000000
Adsorbate stretch/bend energy:                                  0.00000000
Adsorbate stretch/torsion energy:                               0.00000000
Adsorbate bend/torsion energy:                                  0.00000000
Adsorbate intra VDW energy:                                     0.00000000
Adsorbate intra charge-charge Coulomb energy:                   0.00000000
Adsorbate intra charge-bonddipole Coulomb energy:               0.00000000
Adsorbate intra bonddipole-bonddipole Coulomb energy:           0.00000000

Cation stretch energy:                                          0.00000000
Cation UreyBradley energy:                                      0.00000000
Cation bend energy:                                             0.00000000
Cation inversion-bend energy:                                   0.00000000
Cation torsion energy:                                          0.00000000
Cation improper torsion energy:                                 0.00000000
Cation out-of-plane energy:                                     0.00000000
Cation stretch/stretch energy:                                  0.00000000
Cation bend/bend energy:                                        0.00000000
Cation stretch/bend energy:                                     0.00000000
Cation stretch/torsion energy:                                  0.00000000
Cation bend/torsion energy:                                     0.00000000
Cation intra VDW energy:                                        0.00000000
Cation intra charge-charge Coulomb energy:                      0.00000000
Cation intra charge-bonddipole Coulomb energy:                  0.00000000
Cation intra bonddipole-bonddipole Coulomb energy:              0.00000000

Host/Host energy:                                             0.00000000
	Host/Host VDW energy:                                         0.00000000
	Host/Host Coulomb energy:                                     0.00000000
	Host/Host charge-charge Real energy:                          0.00000000
	Host/Host charge-charge Fourier energy:                       0.00000000
	Host/Host charge-bonddipole Real energy:                      0.00000000
	Host/Host charge-bonddipole Fourier energy:                   0.00000000
	Host/Host bondipole-bonddipole Real energy:                   0.00000000
	Host/Host bondipole-bonddipole Fourier energy:                0.00000000

Host/Adsorbate energy:                                    87699.68024285
	Host/Adsorbate VDW energy:                                87699.68024285
	Host/Adsorbate Coulomb energy:                                0.00000000
	Host/Adsorbate charge-charge Real energy:                     0.00000000
	Host/Adsorbate charge-charge Fourier energy:                  0.00000000
	Host/Adsorbate charge-bonddipole Real energy:                 0.00000000
	Host/Adsorbate charge-bonddipole Fourier energy:              0.00000000
	Host/Adsorbate bondipole-bonddipole Real energy:              0.00000000
	Host/Adsorbate bondipole-bonddipole Fourier energy:           0.00000000

Host/Cation energy:                                           0.00000000
	Host/Cation VDW energy:                                       0.00000000
	Host/Cation Coulomb energy:                                   0.00000000
	Host/Cation charge-charge Real energy:                        0.00000000
	Host/Cation charge-charge Fourier energy:                     0.00000000
	Host/Cation charge-bonddipole Real energy:                    0.00000000
	Host/Cation charge-bonddipole Fourier energy:                 0.00000000
	Host/Cation bondipole-bonddipole Real energy:                 0.00000000
	Host/Cation bondipole-bonddipole Fourier energy:              0.00000000

Adsorbate/Adsorbate energy:                                        0.00000000
	Adsorbate/Adsorbate VDW energy:                                    0.00000000
	Adsorbate/Adsorbate Coulomb energy:                                0.00000000
	Adsorbate/Adsorbate charge-charge Real energy:                     0.00000000
	Adsorbate/Adsorbate charge-charge Fourier energy:                  0.00000000
	Adsorbate/Adsorbate charge-bonddipole Real energy:                 0.00000000
	Adsorbate/Adsorbate charge-bonddipole Fourier energy:              0.00000000
	Adsorbate/Adsorbate bondipole-bonddipole Real energy:              0.00000000
	Adsorbate/Adsorbate bondipole-bonddipole Fourier energy:           0.00000000

Adsorbate/Cation energy:                                           0.00000000
	Adsorbate/Cation VDW energy:                                       0.00000000
	Adsorbate/Cation Coulomb energy:                                   0.00000000
	Adsorbate/Cation charge-charge Real energy:                        0.00000000
	Adsorbate/Cation charge-charge Fourier energy:                     0.00000000
	Adsorbate/Cation charge-bonddipole Real energy:                    0.00000000
	Adsorbate/Cation charge-bonddipole Fourier energy:                 0.00000000
	Adsorbate/Cation bondipole-bonddipole Real energy:                 0.00000000
	Adsorbate/Cation bondipole-bonddipole Fourier energy:              0.00000000

Cation/Cation energy:                                           0.00000000
	Cation/Cation VDW energy:                                       0.00000000
	Cation/Cation Coulomb energy:                                   0.00000000
	Cation/Cation charge-charge Real energy:                        0.00000000
	Cation/Cation charge-charge Fourier energy:                     0.00000000
	Cation/Cation charge-bonddipole Real energy:                    0.00000000
	Cation/Cation charge-bonddipole Fourier energy:                 0.00000000
	Cation/Cation bondipole-bonddipole Real energy:                 0.00000000
	Cation/Cation bondipole-bonddipole Fourier energy:              0.00000000

Polarization energy:
	Host polarization energy:                                     0.00000000
	Adsorbate polarization energy:                                0.00000000
	Cation polarization energy:                                   0.00000000
	Host back-polarization energy:                                     0.00000000
	Adsorbate back-polarization energy:                                0.00000000
	Cation back-polarization energy:                                   0.00000000

Tail-correction energy:                                       0.00000000

Distance constraints energy:                                  0.00000000
Angle constraints energy:                                     0.00000000
Dihedral constraints energy:                                  0.00000000
Inversion-bend constraints energy:                            0.00000000
Out-of-plane distance constraints energy:                     0.00000000
Exclusion constraints energy:                                 0.00000000

===================================================================
Total energy: 87699.680242854840
	Total Van der Waals: 87699.680243
	Total Coulomb: 0.000000

	Total Polarization: 0.000000







+++++++++++++++++++++++++++++++++++++++++++++++++++++++++++++++++++++++++
Starting simulation
+++++++++++++++++++++++++++++++++++++++++++++++++++++++++++++++++++++++++

[Init] Current cycle: 0 out of 4000
========================================================================================================

Net charge: 4.44089e-15 (F: 4.44089e-15, A: 0, C: 0)
Current Box:  27.66800   0.00000   0.00000 [A]
               0.00000  27.66800   0.00000 [A]
               0.00000   0.00000  30.81000 [A]
Box-lengths:  27.66800  27.66800  30.81000 Box-angles:   90.00000  90.00000  90.00000 [degrees]
Volume: 23585.61648 [A^3]

Loadings per component:
----------------------------------------------------------------------------------------------------------------------------------------------------
Component 0 (methane), current number of integer/fractional/reaction molecules: 1/0/0, density:   1.12947 [kg/m^3]
	absolute adsorption:   0.05000 [mol/uc],         0.0463 [mol/kg],              0.7421 [mg/g]
	                                                 1.0369 [cm^3 STP/g],          1.5780 [cm^3 STP/cm^3]
	excess adsorption:     0.05000 [mol/uc],         0.0463 [mol/kg],              0.7421 [mg/g]
	                                                 1.0369 [cm^3 STP/g],          1.5780 [cm^3 STP/cm^3]
----------------------------------------------------------------------------------------------------------------------------------------------------
Degrees of freedom: 3 0 3 0
Number of Framework-atoms:   1480
Number of Adsorbates:           1 (1 integer, 0 fractional, 0 reaction)
Number of Cations:              0 (0 integer, 0 fractional, 0 reaction

Current total potential energy:             87699.6802428548 [K]
	Current Host-Host energy:                     0.0000000000 [K]
	Current Host-Adsorbate energy:            87699.6802428548 [K]
	Current Host-Cation energy:                   0.0000000000 [K]
	Current Adsorbate-Adsorbate energy:           0.0000000000 [K]
	Current Cation-Cation energy:                 0.0000000000 [K]
	Current Adsorbate-Cation energy:              0.0000000000 [K]



[Init] Current cycle: 1000 out of 4000
========================================================================================================

Net charge: 4.44089e-15 (F: 4.44089e-15, A: 0, C: 0)
Current Box:  27.66800   0.00000   0.00000 [A]
               0.00000  27.66800   0.00000 [A]
               0.00000   0.00000  30.81000 [A]
Box-lengths:  27.66800  27.66800  30.81000 Box-angles:   90.00000  90.00000  90.00000 [degrees]
Volume: 23585.61648 [A^3]

Loadings per component:
----------------------------------------------------------------------------------------------------------------------------------------------------
Component 0 (methane), current number of integer/fractional/reaction molecules: 1/0/0, density:   1.12947 [kg/m^3]
	absolute adsorption:   0.05000 [mol/uc],         0.0463 [mol/kg],              0.7421 [mg/g]
	                                                 1.0369 [cm^3 STP/g],          1.5780 [cm^3 STP/cm^3]
	excess adsorption:     0.05000 [mol/uc],         0.0463 [mol/kg],              0.7421 [mg/g]
	                                                 1.0369 [cm^3 STP/g],          1.5780 [cm^3 STP/cm^3]
----------------------------------------------------------------------------------------------------------------------------------------------------
Degrees of freedom: 3 0 3 0
Number of Framework-atoms:   1480
Number of Adsorbates:           1 (1 integer, 0 fractional, 0 reaction)
Number of Cations:              0 (0 integer, 0 fractional, 0 reaction

Current total potential energy:             -3096.2842270540 [K]
	Current Host-Host energy:                     0.0000000000 [K]
	Current Host-Adsorbate energy:            -3096.2842270540 [K]
	Current Host-Cation energy:                   0.0000000000 [K]
	Current Adsorbate-Adsorbate energy:           0.0000000000 [K]
	Current Cation-Cation energy:                 0.0000000000 [K]
	Current Adsorbate-Cation energy:              0.0000000000 [K]



[Init] Current cycle: 2000 out of 4000
========================================================================================================

Net charge: 4.44089e-15 (F: 4.44089e-15, A: 0, C: 0)
Current Box:  27.66800   0.00000   0.00000 [A]
               0.00000  27.66800   0.00000 [A]
               0.00000   0.00000  30.81000 [A]
Box-lengths:  27.66800  27.66800  30.81000 Box-angles:   90.00000  90.00000  90.00000 [degrees]
Volume: 23585.61648 [A^3]

Loadings per component:
----------------------------------------------------------------------------------------------------------------------------------------------------
Component 0 (methane), current number of integer/fractional/reaction molecules: 1/0/0, density:   1.12947 [kg/m^3]
	absolute adsorption:   0.05000 [mol/uc],         0.0463 [mol/kg],              0.7421 [mg/g]
	                                                 1.0369 [cm^3 STP/g],          1.5780 [cm^3 STP/cm^3]
	excess adsorption:     0.05000 [mol/uc],         0.0463 [mol/kg],              0.7421 [mg/g]
	                                                 1.0369 [cm^3 STP/g],          1.5780 [cm^3 STP/cm^3]
----------------------------------------------------------------------------------------------------------------------------------------------------
Degrees of freedom: 3 0 3 0
Number of Framework-atoms:   1480
Number of Adsorbates:           1 (1 integer, 0 fractional, 0 reaction)
Number of Cations:              0 (0 integer, 0 fractional, 0 reaction

Current total potential energy:             -3438.5663138868 [K]
	Current Host-Host energy:                     0.0000000000 [K]
	Current Host-Adsorbate energy:            -3438.5663138868 [K]
	Current Host-Cation energy:                   0.0000000000 [K]
	Current Adsorbate-Adsorbate energy:           0.0000000000 [K]
	Current Cation-Cation energy:                 0.0000000000 [K]
	Current Adsorbate-Cation energy:              0.0000000000 [K]



[Init] Current cycle: 3000 out of 4000
========================================================================================================

Net charge: 4.44089e-15 (F: 4.44089e-15, A: 0, C: 0)
Current Box:  27.66800   0.00000   0.00000 [A]
               0.00000  27.66800   0.00000 [A]
               0.00000   0.00000  30.81000 [A]
Box-lengths:  27.66800  27.66800  30.81000 Box-angles:   90.00000  90.00000  90.00000 [degrees]
Volume: 23585.61648 [A^3]

Loadings per component:
----------------------------------------------------------------------------------------------------------------------------------------------------
Component 0 (methane), current number of integer/fractional/reaction molecules: 1/0/0, density:   1.12947 [kg/m^3]
	absolute adsorption:   0.05000 [mol/uc],         0.0463 [mol/kg],              0.7421 [mg/g]
	                                                 1.0369 [cm^3 STP/g],          1.5780 [cm^3 STP/cm^3]
	excess adsorption:     0.05000 [mol/uc],         0.0463 [mol/kg],              0.7421 [mg/g]
	                                                 1.0369 [cm^3 STP/g],          1.5780 [cm^3 STP/cm^3]
----------------------------------------------------------------------------------------------------------------------------------------------------
Degrees of freedom: 3 0 3 0
Number of Framework-atoms:   1480
Number of Adsorbates:           1 (1 integer, 0 fractional, 0 reaction)
Number of Cations:              0 (0 integer, 0 fractional, 0 reaction

Current total potential energy:             -3133.9471852448 [K]
	Current Host-Host energy:                     0.0000000000 [K]
	Current Host-Adsorbate energy:            -3133.9471852448 [K]
	Current Host-Cation energy:                   0.0000000000 [K]
	Current Adsorbate-Adsorbate energy:           0.0000000000 [K]
	Current Cation-Cation energy:                 0.0000000000 [K]
	Current Adsorbate-Cation energy:              0.0000000000 [K]



Average Properties at Current cycle: 0 out of 6000
========================================================================================

Framework surface area:       0.0000000000 [m^2/g]        0.0000000000 [m^2/cm^3]       0.0000000000 [A^2]
	Framework 0 individual surface area:       0.0000000000 [m^2/g]        0.0000000000 [m^2/cm^3]       0.0000000000 [A^2]
	Cation surface area:                       0.0000000000 [m^2/g]        0.0000000000 [m^2/cm^3]       0.0000000000 [A^2]
Compressibility:       0.0000000000 [-]
Henry coefficients
	Component 0: 0 [mol/kg/Pa] (Rosenbluth factor new: 0 [-])
Energy <U_gh>_1-<U_h>_0 from Widom


Current cycle: 0 out of 6000
========================================================================================================

Net charge: 4.44089e-15 (F: 4.44089e-15, A: 0, C: 0)
Current Box:  27.66800   0.00000   0.00000 [A]   Average Box:  27.66800   0.00000   0.00000 [A]
               0.00000  27.66800   0.00000 [A]                  0.00000  27.66800   0.00000 [A]
               0.00000   0.00000  30.81000 [A]                  0.00000   0.00000  30.81000 [A]
Box-lengths:   27.66800  27.66800  30.81000 [A] Average:  27.66800  27.66800  30.81000 [A]
Box-angles:   90.00000  90.00000  90.00000 [degrees] Average:  90.00000  90.00000  90.00000 [degrees]
Volume: 23585.61648 [A^3] Average Volume: 23585.61648 [A^3]

Loadings per component:
----------------------------------------------------------------------------------------------------------------------------------------------------
Component 0 (methane), current number of integer/fractional/reaction molecules: 1/0/0 (avg.   1.00000), density:   1.12947 (avg.   1.12947) [kg/m^3]
	absolute adsorption:   0.05000 (avg.   0.05000) [mol/uc],   0.0462592583 (avg.   0.0462592583) [mol/kg],   0.7421123016 (avg.   0.7421123016) [mg/g]
	                       1.0368538946 (avg.   1.0368538946) [cm^3 STP/g],    1.5780496888 (avg.   1.5780496888) [cm^3 STP/cm^3]
	excess adsorption:     0.0500000000 (avg.   0.0500000000) [mol/uc],   0.0462592583 (avg.   0.0462592583) [mol/kg],   0.7421123016 (avg.   0.7421123016) [mg/g]
	                       1.0368538946 (avg.   1.0368538946) [cm^3 STP/g],    1.5780496888 (avg.   1.5780496888) [cm^3 STP/cm^3]
----------------------------------------------------------------------------------------------------------------------------------------------------
Degrees of freedom: 3 0 3 0
Number of Framework-atoms:   1480
Number of Adsorbates:           1 (1 integer, 0 fractional, 0 reaction)
Number of Cations:              0 (0 integer, 0 fractional, 0 reaction)

Current total potential energy:             -3170.7120858490 [K]  (avg.       -3170.7120858490)
	Current Host-Host energy:                     0.0000000000 [K]  (avg.           0.0000000000)
	Current Host-Adsorbate energy:            -3170.7120858490 [K]  (avg.       -3170.7120858490)
	Current Host-Cation energy:                   0.0000000000 [K]  (avg.           0.0000000000)
	Current Adsorbate-Adsorbate energy:           0.0000000000 [K]  (avg.           0.0000000000)
	Current Cation-Cation energy:                 0.0000000000 [K]  (avg.           0.0000000000)
	Current Adsorbate-Cation energy:              0.0000000000 [K]  (avg.           0.0000000000)



Current cycle: 1000 out of 6000
========================================================================================================

Net charge: 4.44089e-15 (F: 4.44089e-15, A: 0, C: 0)
Current Box:  27.66800   0.00000   0.00000 [A]   Average Box:  27.66800   0.00000   0.00000 [A]
               0.00000  27.66800   0.00000 [A]                  0.00000  27.66800   0.00000 [A]
               0.00000   0.00000  30.81000 [A]                  0.00000   0.00000  30.81000 [A]
Box-lengths:   27.66800  27.66800  30.81000 [A] Average:  27.66800  27.66800  30.81000 [A]
Box-angles:   90.00000  90.00000  90.00000 [degrees] Average:  90.00000  90.00000  90.00000 [degrees]
Volume: 23585.61648 [A^3] Average Volume: 23585.61648 [A^3]

Loadings per component:
----------------------------------------------------------------------------------------------------------------------------------------------------
Component 0 (methane), current number of integer/fractional/reaction molecules: 1/0/0 (avg.   1.00000), density:   1.12947 (avg.   1.12947) [kg/m^3]
	absolute adsorption:   0.05000 (avg.   0.05000) [mol/uc],   0.0462592583 (avg.   0.0462592583) [mol/kg],   0.7421123016 (avg.   0.7421123016) [mg/g]
	                       1.0368538946 (avg.   1.0368538946) [cm^3 STP/g],    1.5780496888 (avg.   1.5780496888) [cm^3 STP/cm^3]
	excess adsorption:     0.0500000000 (avg.   0.0500000000) [mol/uc],   0.0462592583 (avg.   0.0462592583) [mol/kg],   0.7421123016 (avg.   0.7421123016) [mg/g]
	                       1.0368538946 (avg.   1.0368538946) [cm^3 STP/g],    1.5780496888 (avg.   1.5780496888) [cm^3 STP/cm^3]
----------------------------------------------------------------------------------------------------------------------------------------------------
Degrees of freedom: 3 0 3 0
Number of Framework-atoms:   1480
Number of Adsorbates:           1 (1 integer, 0 fractional, 0 reaction)
Number of Cations:              0 (0 integer, 0 fractional, 0 reaction)

Current total potential energy:             -2902.6519599159 [K]  (avg.       -3145.8335042693)
	Current Host-Host energy:                     0.0000000000 [K]  (avg.           0.0000000000)
	Current Host-Adsorbate energy:            -2902.6519599159 [K]  (avg.       -3145.8335042693)
	Current Host-Cation energy:                   0.0000000000 [K]  (avg.           0.0000000000)
	Current Adsorbate-Adsorbate energy:           0.0000000000 [K]  (avg.           0.0000000000)
	Current Cation-Cation energy:                 0.0000000000 [K]  (avg.           0.0000000000)
	Current Adsorbate-Cation energy:              0.0000000000 [K]  (avg.           0.0000000000)



Current cycle: 2000 out of 6000
========================================================================================================

Net charge: 4.44089e-15 (F: 4.44089e-15, A: 0, C: 0)
Current Box:  27.66800   0.00000   0.00000 [A]   Average Box:  27.66800   0.00000   0.00000 [A]
               0.00000  27.66800   0.00000 [A]                  0.00000  27.66800   0.00000 [A]
               0.00000   0.00000  30.81000 [A]                  0.00000   0.00000  30.81000 [A]
Box-lengths:   27.66800  27.66800  30.81000 [A] Average:  27.66800  27.66800  30.81000 [A]
Box-angles:   90.00000  90.00000  90.00000 [degrees] Average:  90.00000  90.00000  90.00000 [degrees]
Volume: 23585.61648 [A^3] Average Volume: 23585.61648 [A^3]

Loadings per component:
----------------------------------------------------------------------------------------------------------------------------------------------------
Component 0 (methane), current number of integer/fractional/reaction molecules: 1/0/0 (avg.   1.00000), density:   1.12947 (avg.   1.12947) [kg/m^3]
	absolute adsorption:   0.05000 (avg.   0.05000) [mol/uc],   0.0462592583 (avg.   0.0462592583) [mol/kg],   0.7421123016 (avg.   0.7421123016) [mg/g]
	                       1.0368538946 (avg.   1.0368538946) [cm^3 STP/g],    1.5780496888 (avg.   1.5780496888) [cm^3 STP/cm^3]
	excess adsorption:     0.0500000000 (avg.   0.0500000000) [mol/uc],   0.0462592583 (avg.   0.0462592583) [mol/kg],   0.7421123016 (avg.   0.7421123016) [mg/g]
	                       1.0368538946 (avg.   1.0368538946) [cm^3 STP/g],    1.5780496888 (avg.   1.5780496888) [cm^3 STP/cm^3]
----------------------------------------------------------------------------------------------------------------------------------------------------
Degrees of freedom: 3 0 3 0
Number of Framework-atoms:   1480
Number of Adsorbates:           1 (1 integer, 0 fractional, 0 reaction)
Number of Cations:              0 (0 integer, 0 fractional, 0 reaction)

Current total potential energy:             -3420.2814236440 [K]  (avg.       -3146.4068397183)
	Current Host-Host energy:                     0.0000000000 [K]  (avg.           0.0000000000)
	Current Host-Adsorbate energy:            -3420.2814236440 [K]  (avg.       -3146.4068397183)
	Current Host-Cation energy:                   0.0000000000 [K]  (avg.           0.0000000000)
	Current Adsorbate-Adsorbate energy:           0.0000000000 [K]  (avg.           0.0000000000)
	Current Cation-Cation energy:                 0.0000000000 [K]  (avg.           0.0000000000)
	Current Adsorbate-Cation energy:              0.0000000000 [K]  (avg.           0.0000000000)



Current cycle: 3000 out of 6000
========================================================================================================

Net charge: 4.44089e-15 (F: 4.44089e-15, A: 0, C: 0)
Current Box:  27.66800   0.00000   0.00000 [A]   Average Box:  27.66800   0.00000   0.00000 [A]
               0.00000  27.66800   0.00000 [A]                  0.00000  27.66800   0.00000 [A]
               0.00000   0.00000  30.81000 [A]                  0.00000   0.00000  30.81000 [A]
Box-lengths:   27.66800  27.66800  30.81000 [A] Average:  27.66800  27.66800  30.81000 [A]
Box-angles:   90.00000  90.00000  90.00000 [degrees] Average:  90.00000  90.00000  90.00000 [degrees]
Volume: 23585.61648 [A^3] Average Volume: 23585.61648 [A^3]

Loadings per component:
----------------------------------------------------------------------------------------------------------------------------------------------------
Component 0 (methane), current number of integer/fractional/reaction molecules: 1/0/0 (avg.   1.00000), density:   1.12947 (avg.   1.12947) [kg/m^3]
	absolute adsorption:   0.05000 (avg.   0.05000) [mol/uc],   0.0462592583 (avg.   0.0462592583) [mol/kg],   0.7421123016 (avg.   0.7421123016) [mg/g]
	                       1.0368538946 (avg.   1.0368538946) [cm^3 STP/g],    1.5780496888 (avg.   1.5780496888) [cm^3 STP/cm^3]
	excess adsorption:     0.0500000000 (avg.   0.0500000000) [mol/uc],   0.0462592583 (avg.   0.0462592583) [mol/kg],   0.7421123016 (avg.   0.7421123016) [mg/g]
	                       1.0368538946 (avg.   1.0368538946) [cm^3 STP/g],    1.5780496888 (avg.   1.5780496888) [cm^3 STP/cm^3]
----------------------------------------------------------------------------------------------------------------------------------------------------
Degrees of freedom: 3 0 3 0
Number of Framework-atoms:   1480
Number of Adsorbates:           1 (1 integer, 0 fractional, 0 reaction)
Number of Cations:              0 (0 integer, 0 fractional, 0 reaction)

Current total potential energy:             -3324.1252489021 [K]  (avg.       -3139.9305744107)
	Current Host-Host energy:                     0.0000000000 [K]  (avg.           0.0000000000)
	Current Host-Adsorbate energy:            -3324.1252489021 [K]  (avg.       -3139.9305744107)
	Current Host-Cation energy:                   0.0000000000 [K]  (avg.           0.0000000000)
	Current Adsorbate-Adsorbate energy:           0.0000000000 [K]  (avg.           0.0000000000)
	Current Cation-Cation energy:                 0.0000000000 [K]  (avg.           0.0000000000)
	Current Adsorbate-Cation energy:              0.0000000000 [K]  (avg.           0.0000000000)



Current cycle: 4000 out of 6000
========================================================================================================

Net charge: 4.44089e-15 (F: 4.44089e-15, A: 0, C: 0)
Current Box:  27.66800   0.00000   0.00000 [A]   Average Box:  27.66800   0.00000   0.00000 [A]
               0.00000  27.66800   0.00000 [A]                  0.00000  27.66800   0.00000 [A]
               0.00000   0.00000  30.81000 [A]                  0.00000   0.00000  30.81000 [A]
Box-lengths:   27.66800  27.66800  30.81000 [A] Average:  27.66800  27.66800  30.81000 [A]
Box-angles:   90.00000  90.00000  90.00000 [degrees] Average:  90.00000  90.00000  90.00000 [degrees]
Volume: 23585.61648 [A^3] Average Volume: 23585.61648 [A^3]

Loadings per component:
----------------------------------------------------------------------------------------------------------------------------------------------------
Component 0 (methane), current number of integer/fractional/reaction molecules: 1/0/0 (avg.   1.00000), density:   1.12947 (avg.   1.12947) [kg/m^3]
	absolute adsorption:   0.05000 (avg.   0.05000) [mol/uc],   0.0462592583 (avg.   0.0462592583) [mol/kg],   0.7421123016 (avg.   0.7421123016) [mg/g]
	                       1.0368538946 (avg.   1.0368538946) [cm^3 STP/g],    1.5780496888 (avg.   1.5780496888) [cm^3 STP/cm^3]
	excess adsorption:     0.0500000000 (avg.   0.0500000000) [mol/uc],   0.0462592583 (avg.   0.0462592583) [mol/kg],   0.7421123016 (avg.   0.7421123016) [mg/g]
	                       1.0368538946 (avg.   1.0368538946) [cm^3 STP/g],    1.5780496888 (avg.   1.5780496888) [cm^3 STP/cm^3]
----------------------------------------------------------------------------------------------------------------------------------------------------
Degrees of freedom: 3 0 3 0
Number of Framework-atoms:   1480
Number of Adsorbates:           1 (1 integer, 0 fractional, 0 reaction)
Number of Cations:              0 (0 integer, 0 fractional, 0 reaction)

Current total potential energy:             -2866.3512290720 [K]  (avg.       -3139.9403128854)
	Current Host-Host energy:                     0.0000000000 [K]  (avg.           0.0000000000)
	Current Host-Adsorbate energy:            -2866.3512290720 [K]  (avg.       -3139.9403128854)
	Current Host-Cation energy:                   0.0000000000 [K]  (avg.           0.0000000000)
	Current Adsorbate-Adsorbate energy:           0.0000000000 [K]  (avg.           0.0000000000)
	Current Cation-Cation energy:                 0.0000000000 [K]  (avg.           0.0000000000)
	Current Adsorbate-Cation energy:              0.0000000000 [K]  (avg.           0.0000000000)



Current cycle: 5000 out of 6000
========================================================================================================

Net charge: 4.44089e-15 (F: 4.44089e-15, A: 0, C: 0)
Current Box:  27.66800   0.00000   0.00000 [A]   Average Box:  27.66800   0.00000   0.00000 [A]
               0.00000  27.66800   0.00000 [A]                  0.00000  27.66800   0.00000 [A]
               0.00000   0.00000  30.81000 [A]                  0.00000   0.00000  30.81000 [A]
Box-lengths:   27.66800  27.66800  30.81000 [A] Average:  27.66800  27.66800  30.81000 [A]
Box-angles:   90.00000  90.00000  90.00000 [degrees] Average:  90.00000  90.00000  90.00000 [degrees]
Volume: 23585.61648 [A^3] Average Volume: 23585.61648 [A^3]

Loadings per component:
----------------------------------------------------------------------------------------------------------------------------------------------------
Component 0 (methane), current number of integer/fractional/reaction molecules: 1/0/0 (avg.   1.00000), density:   1.12947 (avg.   1.12947) [kg/m^3]
	absolute adsorption:   0.05000 (avg.   0.05000) [mol/uc],   0.0462592583 (avg.   0.0462592583) [mol/kg],   0.7421123016 (avg.   0.7421123016) [mg/g]
	                       1.0368538946 (avg.   1.0368538946) [cm^3 STP/g],    1.5780496888 (avg.   1.5780496888) [cm^3 STP/cm^3]
	excess adsorption:     0.0500000000 (avg.   0.0500000000) [mol/uc],   0.0462592583 (avg.   0.0462592583) [mol/kg],   0.7421123016 (avg.   0.7421123016) [mg/g]
	                       1.0368538946 (avg.   1.0368538946) [cm^3 STP/g],    1.5780496888 (avg.   1.5780496888) [cm^3 STP/cm^3]
----------------------------------------------------------------------------------------------------------------------------------------------------
Degrees of freedom: 3 0 3 0
Number of Framework-atoms:   1480
Number of Adsorbates:           1 (1 integer, 0 fractional, 0 reaction)
Number of Cations:              0 (0 integer, 0 fractional, 0 reaction)

Current total potential energy:             -2937.9619148291 [K]  (avg.       -3139.4920912404)
	Current Host-Host energy:                     0.0000000000 [K]  (avg.           0.0000000000)
	Current Host-Adsorbate energy:            -2937.9619148291 [K]  (avg.       -3139.4920912404)
	Current Host-Cation energy:                   0.0000000000 [K]  (avg.           0.0000000000)
	Current Adsorbate-Adsorbate energy:           0.0000000000 [K]  (avg.           0.0000000000)
	Current Cation-Cation energy:                 0.0000000000 [K]  (avg.           0.0000000000)
	Current Adsorbate-Cation energy:              0.0000000000 [K]  (avg.           0.0000000000)



+++++++++++++++++++++++++++++++++++++++++++++++++++++++++++++++++++++++++
Finishing simulation
+++++++++++++++++++++++++++++++++++++++++++++++++++++++++++++++++++++++++




Current (running energy) Energy Status
===========================================================================

Internal energy:
Host stretch energy:                                            0.00000000
Host UreyBradley energy:                                        0.00000000
Host bend energy:                                               0.00000000
Host inversion-bend energy:                                     0.00000000
Host torsion energy:                                            0.00000000
Host improper torsion energy:                                   0.00000000
Host out-of-plane energy:                                       0.00000000
Host stretch/stretch energy:                                    0.00000000
Host bend/bend energy:                                          0.00000000
Host stretch/bend energy:                                       0.00000000
Host stretch/torsion energy:                                    0.00000000
Host bend/torsion energy:                                       0.00000000

Adsorbate stretch energy:                                       0.00000000
Adsorbate UreyBradley energy:                                   0.00000000
Adsorbate bend energy:                                          0.00000000
Adsorbate inversion-bend energy:                                0.00000000
Adsorbate torsion energy:                                       0.00000000
Adsorbate improper torsion energy:                              0.00000000
Adsorbate out-of-plane energy:                                  0.00000000
Adsorbate stretch/stretch energy:                               0.00000000
Adsorbate bend/bend energy:                                     0.00000000
Adsorbate stretch/bend energy:                                  0.00000000
Adsorbate stretch/torsion energy:                               0.00000000
Adsorbate bend/torsion energy:                                  0.00000000
Adsorbate intra VDW energy:                                     0.00000000
Adsorbate intra charge-charge Coulomb energy:                   0.00000000
Adsorbate intra charge-bonddipole Coulomb energy:               0.00000000
Adsorbate intra bonddipole-bonddipole Coulomb energy:           0.00000000

Cation stretch energy:                                          0.00000000
Cation UreyBradley energy:                                      0.00000000
Cation bend energy:                                             0.00000000
Cation inversion-bend energy:                                   0.00000000
Cation torsion energy:                                          0.00000000
Cation improper torsion energy:                                 0.00000000
Cation out-of-plane energy:                                     0.00000000
Cation stretch/stretch energy:                                  0.00000000
Cation bend/bend energy:                                        0.00000000
Cation stretch/bend energy:                                     0.00000000
Cation stretch/torsion energy:                                  0.00000000
Cation bend/torsion energy:                                     0.00000000
Cation intra VDW energy:                                        0.00000000
Cation intra charge-charge Coulomb energy:                      0.00000000
Cation intra charge-bonddipole Coulomb energy:                  0.00000000
Cation intra bonddipole-bonddipole Coulomb energy:              0.00000000

Host/Host energy:                                             0.00000000
	Host/Host VDW energy:                                         0.00000000
	Host/Host Coulomb energy:                                     0.00000000
	Host/Host charge-charge Real energy:                          0.00000000
	Host/Host charge-charge Fourier energy:                       0.00000000
	Host/Host charge-bonddipole Real energy:                      0.00000000
	Host/Host charge-bonddipole Fourier energy:                   0.00000000
	Host/Host bondipole-bonddipole Real energy:                   0.00000000
	Host/Host bondipole-bonddipole Fourier energy:                0.00000000

Host/Adsorbate energy:                                    -3443.21937412
	Host/Adsorbate VDW energy:                                -3443.21937412
	Host/Adsorbate Coulomb energy:                                0.00000000
	Host/Adsorbate charge-charge Real energy:                     0.00000000
	Host/Adsorbate charge-charge Fourier energy:                  0.00000000
	Host/Adsorbate charge-bonddipole Real energy:                 0.00000000
	Host/Adsorbate charge-bonddipole Fourier energy:              0.00000000
	Host/Adsorbate bondipole-bonddipole Real energy:              0.00000000
	Host/Adsorbate bondipole-bonddipole Fourier energy:           0.00000000

Host/Cation energy:                                           0.00000000
	Host/Cation VDW energy:                                       0.00000000
	Host/Cation Coulomb energy:                                   0.00000000
	Host/Cation charge-charge Real energy:                        0.00000000
	Host/Cation charge-charge Fourier energy:                     0.00000000
	Host/Cation charge-bonddipole Real energy:                    0.00000000
	Host/Cation charge-bonddipole Fourier energy:                 0.00000000
	Host/Cation bondipole-bonddipole Real energy:                 0.00000000
	Host/Cation bondipole-bonddipole Fourier energy:              0.00000000

Adsorbate/Adsorbate energy:                                        0.00000000
	Adsorbate/Adsorbate VDW energy:                                    0.00000000
	Adsorbate/Adsorbate Coulomb energy:                                0.00000000
	Adsorbate/Adsorbate charge-charge Real energy:                     0.00000000
	Adsorbate/Adsorbate charge-charge Fourier energy:                  0.00000000
	Adsorbate/Adsorbate charge-bonddipole Real energy:                 0.00000000
	Adsorbate/Adsorbate charge-bonddipole Fourier energy:              0.00000000
	Adsorbate/Adsorbate bondipole-bonddipole Real energy:              0.00000000
	Adsorbate/Adsorbate bondipole-bonddipole Fourier energy:           0.00000000

Adsorbate/Cation energy:                                           0.00000000
	Adsorbate/Cation VDW energy:                                       0.00000000
	Adsorbate/Cation Coulomb energy:                                   0.00000000
	Adsorbate/Cation charge-charge Real energy:                        0.00000000
	Adsorbate/Cation charge-charge Fourier energy:                     0.00000000
	Adsorbate/Cation charge-bonddipole Real energy:                    0.00000000
	Adsorbate/Cation charge-bonddipole Fourier energy:                 0.00000000
	Adsorbate/Cation bondipole-bonddipole Real energy:                 0.00000000
	Adsorbate/Cation bondipole-bonddipole Fourier energy:              0.00000000

Cation/Cation energy:                                           0.00000000
	Cation/Cation VDW energy:                                       0.00000000
	Cation/Cation Coulomb energy:                                   0.00000000
	Cation/Cation charge-charge Real energy:                        0.00000000
	Cation/Cation charge-charge Fourier energy:                     0.00000000
	Cation/Cation charge-bonddipole Real energy:                    0.00000000
	Cation/Cation charge-bonddipole Fourier energy:                 0.00000000
	Cation/Cation bondipole-bonddipole Real energy:                 0.00000000
	Cation/Cation bondipole-bonddipole Fourier energy:              0.00000000

Polarization energy:
	Host polarization energy:                                     0.00000000
	Adsorbate polarization energy:                                0.00000000
	Cation polarization energy:                                   0.00000000
	Host back-polarization energy:                                     0.00000000
	Adsorbate back-polarization energy:                                0.00000000
	Cation back-polarization energy:                                   0.00000000

Tail-correction energy:                                       0.00000000

Distance constraints energy:                                  0.00000000
Angle constraints energy:                                     0.00000000
Dihedral constraints energy:                                  0.00000000
Inversion-bend constraints energy:                            0.00000000
Out-of-plane distance constraints energy:                     0.00000000
Exclusion constraints energy:                                 0.00000000

===================================================================
Total energy: -3443.219374122747
	Total Van der Waals: -3443.219374
	Total Coulomb: 0.000000

	Total Polarization: 0.000000

Monte-Carlo moves statistics
===========================================================================

Performance of the small-MC scheme
==================================

Component 0 [methane]
----------------------------------------------
Bead: 0



Performance of the translation move:
======================================
Component 0 [methane]
	total        13284.000000 13406.000000 13416.000000
	succesfull   5660.000000 9955.000000 8682.000000
	accepted   0.426076 0.742578 0.647138
	displacement 0.764121 0.622570 0.674139


Random translation move was OFF for all components

Performance of the rotation move:
=================================
Component 0 [methane]
	total        13207.000000 13381.000000 13298.000000
	succesfull   13207.000000 13381.000000 13298.000000
	accepted   1.000000 1.000000 1.000000
	angle-change 126.562500 126.562500 126.562500


Random rotation move was OFF for all components

Swap addition move was OFF for all components

Swap deletion move was OFF for all components

Performance of the Reinsertion move:
====================================
Component [methane] total tried: 40008.000000 succesfull growth: 19969.000000 (49.912517 [%]) accepted: 593.000000 (1.482204 [%])

Reinsertion-in-plane move was OFF for all components

Reinsertion-in-place move was OFF for all components

Partial reinsertion move was OFF for all components

Identity change move was OFF for all components

Parallel tempering move was OFF

Hyper parallel tempering move was OFF

Parallel mol-fraction move was OFF

Chiral inversion move was OFF

Volume move was OFF

Box shape change move was OFF

Framework change move was OFF

Framework shift move was OFF

Hybrid MC/MD move in the NVE-ensemble was OFF

Hybrid MC/MD in the NPH-ensemble move was OFF

Hybrid MC/MD in the NPH-ensemble (Parrinello-Rahman) move was OFF

Gibbs volume change move was OFF

Gibbs swap move was OFF for all components

Gibbs identity change move was OFF for all components

CFCMC swap lambda move was OFF for all components

CB/CFCMC swap lambda move was OFF for all components

CFCMC Gibbs lambda move was OFF for all components

CB/CFCMC Gibbs lambda move was OFF for all components

No reactions present, RXMC is OFF

Exchange fractional-particle move was OFF for all components

CFCMC Gibbs Lambda-change move was OFF for all components

CFCMC Gibbs Swap-Fractional-Molecule-To-Other-Box move was OFF for all components

CFCMC Gibbs Swap-Fractional-Molecule-To-Other-Box move was OFF for all components

CFCMC swap lambda move was OFF for all components

Gibbs Widom move was OFF for all components



Total CPU timings:
===========================================
initialization:             21.397635 [s]
equilibration:                      0 [s]
production run:             32.350503 [s]
total time:                 53.748138 [s]

Production run CPU timings of the MC moves:
===========================================
Component: 0 (methane)
	translation:                                  8.216164 [s]
	random translation:                                  0 [s]
	rotation:                                     8.171616 [s]
	random rotation:                                     0 [s]
	partial reinsertion:                                 0 [s]
	reinsertion:                                 15.871651 [s]
	reinsertion in-place:                                0 [s]
	reinsertion in-plane:                                0 [s]
	identity switch:                                     0 [s]
	swap (insertion):                                    0 [s]
	swap (deletion):                                     0 [s]
	swap lambda (CFMC):                                  0 [s]
	swap lambda (CB/CFMC):                               0 [s]
	Widom:                                               0 [s]
	CF-Widom:                                            0 [s]
	Gibbs Widom:                                         0 [s]
	surface area:                                        0 [s]
	Gibbs particle transform:                            0 [s]
	Gibbs particle transform (CFMC):                     0 [s]
	Gibbs particle transform (CB/CFMC):                  0 [s]
	Gibbs indentity change:                              0 [s]
	Exchange fract./int. particle:                       0 [s]
	Swap Gibbs-fractional molecules:                     0 [s]
	Change Gibs-lambda value:                            0 [s]
	Convert Gibbs fract. to integer:                     0 [s]

Total all components:
	translation:                                  8.216164 [s]
	random translation:                                  0 [s]
	rotation:                                     8.171616 [s]
	random rotation:                                     0 [s]
	partial reinsertion:                                 0 [s]
	reinsertion:                                 15.871651 [s]
	reinsertion in-place:                                0 [s]
	reinsertion in-plane:                                0 [s]
	identity switch:                                     0 [s]
	swap (insertion):                                    0 [s]
[...]
	Block[ 3]            0.00000 [K]
	Block[ 4]            0.00000 [K]
	------------------------------------------------------------------------------
	Average              0.00000 [K] +/-            0.00000 [K]

Average Cation Bend angle inversion energy:
===========================================
	Block[ 0]            0.00000 [K]
	Block[ 1]            0.00000 [K]
	Block[ 2]            0.00000 [K]
	Block[ 3]            0.00000 [K]
	Block[ 4]            0.00000 [K]
	------------------------------------------------------------------------------
	Average              0.00000 [K] +/-            0.00000 [K]

Average Cation Torsion energy:
==============================
	Block[ 0]            0.00000 [K]
	Block[ 1]            0.00000 [K]
	Block[ 2]            0.00000 [K]
	Block[ 3]            0.00000 [K]
	Block[ 4]            0.00000 [K]
	------------------------------------------------------------------------------
	Average              0.00000 [K] +/-            0.00000 [K]

Average Cation Improper Torsion energy:
=======================================
	Block[ 0]            0.00000 [K]
	Block[ 1]            0.00000 [K]
	Block[ 2]            0.00000 [K]
	Block[ 3]            0.00000 [K]
	Block[ 4]            0.00000 [K]
	------------------------------------------------------------------------------
	Average              0.00000 [K] +/-            0.00000 [K]

Average Cation Bond-Bond cross term energy:
=================================================
	Block[ 0]            0.00000 [K]
	Block[ 1]            0.00000 [K]
	Block[ 2]            0.00000 [K]
	Block[ 3]            0.00000 [K]
	Block[ 4]            0.00000 [K]
	------------------------------------------------------------------------------
	Average              0.00000 [K] +/-            0.00000 [K]

Average Cation Bend-Bend cross term energy:
===========================================
	Block[ 0]            0.00000 [K]
	Block[ 1]            0.00000 [K]
	Block[ 2]            0.00000 [K]
	Block[ 3]            0.00000 [K]
	Block[ 4]            0.00000 [K]
	------------------------------------------------------------------------------
	Average              0.00000 [K] +/-            0.00000 [K]

Average Cation Bond-Bend cross term energy:
==============================================
	Block[ 0]            0.00000 [K]
	Block[ 1]            0.00000 [K]
	Block[ 2]            0.00000 [K]
	Block[ 3]            0.00000 [K]
	Block[ 4]            0.00000 [K]
	------------------------------------------------------------------------------
	Average              0.00000 [K] +/-            0.00000 [K]

Average Cation Bond-Torsion cross term energy:
==============================================
	Block[ 0]            0.00000 [K]
	Block[ 1]            0.00000 [K]
	Block[ 2]            0.00000 [K]
	Block[ 3]            0.00000 [K]
	Block[ 4]            0.00000 [K]
	------------------------------------------------------------------------------
	Average              0.00000 [K] +/-            0.00000 [K]

Average Cation Bend-Torsion cross term energy:
==============================================
	Block[ 0]            0.00000 [K]
	Block[ 1]            0.00000 [K]
	Block[ 2]            0.00000 [K]
	Block[ 3]            0.00000 [K]
	Block[ 4]            0.00000 [K]
	------------------------------------------------------------------------------
	Average              0.00000 [K] +/-            0.00000 [K]

Average Cation Intra Van der Waals energy:
==========================================
	Block[ 0]            0.00000 [K]
	Block[ 1]            0.00000 [K]
	Block[ 2]            0.00000 [K]
	Block[ 3]            0.00000 [K]
	Block[ 4]            0.00000 [K]
	------------------------------------------------------------------------------
	Average              0.00000 [K] +/-            0.00000 [K]

Average Cation Intra charge-charge Coulomb energy:
====================================
	Block[ 0]            0.00000 [K]
	Block[ 1]            0.00000 [K]
	Block[ 2]            0.00000 [K]
	Block[ 3]            0.00000 [K]
	Block[ 4]            0.00000 [K]
	------------------------------------------------------------------------------
	Average              0.00000 [K] +/-            0.00000 [K]

Average Cation Intra charge-bonddipole Coulomb energy:
====================================
	Block[ 0]            0.00000 [K]
	Block[ 1]            0.00000 [K]
	Block[ 2]            0.00000 [K]
	Block[ 3]            0.00000 [K]
	Block[ 4]            0.00000 [K]
	------------------------------------------------------------------------------
	Average              0.00000 [K] +/-            0.00000 [K]

Average Cation Intra bonddipole-bonddipole Coulomb energy:
====================================
	Block[ 0]            0.00000 [K]
	Block[ 1]            0.00000 [K]
	Block[ 2]            0.00000 [K]
	Block[ 3]            0.00000 [K]
	Block[ 4]            0.00000 [K]
	------------------------------------------------------------------------------
	Average              0.00000 [K] +/-            0.00000 [K]

Average Host-Host energy:
=========================
	Block[ 0] 0.00000            Van der Waals: 0.00000            Coulomb: 0.00000            [K]
	Block[ 1] 0.00000            Van der Waals: 0.00000            Coulomb: 0.00000            [K]
	Block[ 2] 0.00000            Van der Waals: 0.00000            Coulomb: 0.00000            [K]
	Block[ 3] 0.00000            Van der Waals: 0.00000            Coulomb: 0.00000            [K]
	Block[ 4] 0.00000            Van der Waals: 0.00000            Coulomb: 0.00000            [K]
	------------------------------------------------------------------------------
	Average   0.00000            Van der Waals: 0.000000           Coulomb: 0.00000            [K]
	      +/- 0.00000                       +/- 0.000000                +/- 0.00000            [K]

Average Adsorbate-Adsorbate energy:
===================================
	Block[ 0] 0.00000            Van der Waals: 0.00000            Coulomb: 0.00000            [K]
	Block[ 1] 0.00000            Van der Waals: 0.00000            Coulomb: 0.00000            [K]
	Block[ 2] 0.00000            Van der Waals: 0.00000            Coulomb: 0.00000            [K]
	Block[ 3] 0.00000            Van der Waals: 0.00000            Coulomb: 0.00000            [K]
	Block[ 4] 0.00000            Van der Waals: 0.00000            Coulomb: 0.00000            [K]
	------------------------------------------------------------------------------
	Average   0.00000            Van der Waals: 0.000000           Coulomb: 0.00000            [K]
	      +/- 0.00000                       +/- 0.000000                +/- 0.00000            [K]

Average Cation-Cation energy:
=============================
	Block[ 0] 0.00000            Van der Waals: 0.00000            Coulomb: 0.00000            [K]
	Block[ 1] 0.00000            Van der Waals: 0.00000            Coulomb: 0.00000            [K]
	Block[ 2] 0.00000            Van der Waals: 0.00000            Coulomb: 0.00000            [K]
	Block[ 3] 0.00000            Van der Waals: 0.00000            Coulomb: 0.00000            [K]
	Block[ 4] 0.00000            Van der Waals: 0.00000            Coulomb: 0.00000            [K]
	------------------------------------------------------------------------------
	Average   0.00000            Van der Waals: 0.000000           Coulomb: 0.00000            [K]
	      +/- 0.00000                       +/- 0.000000                +/- 0.00000            [K]

Average Host-Adsorbate energy:
==============================
	Block[ 0] -3145.24703        Van der Waals: -3145.24703        Coulomb: 0.00000            [K]
	Block[ 1] -3143.00358        Van der Waals: -3143.00358        Coulomb: 0.00000            [K]
	Block[ 2] -3126.35561        Van der Waals: -3126.35561        Coulomb: 0.00000            [K]
	Block[ 3] -3141.53335        Van der Waals: -3141.53335        Coulomb: 0.00000            [K]
	Block[ 4] -3139.91360        Van der Waals: -3139.91360        Coulomb: 0.00000            [K]
	------------------------------------------------------------------------------
	Average   -3139.21064        Van der Waals: -3139.210635       Coulomb: 0.00000            [K]
	      +/- 9.24798                       +/- 9.247984                +/- 0.00000            [K]

Average Host-Cation energy:
===========================
	Block[ 0] 0.00000            Van der Waals: 0.00000            Coulomb: 0.00000            [K]
	Block[ 1] 0.00000            Van der Waals: 0.00000            Coulomb: 0.00000            [K]
	Block[ 2] 0.00000            Van der Waals: 0.00000            Coulomb: 0.00000            [K]
	Block[ 3] 0.00000            Van der Waals: 0.00000            Coulomb: 0.00000            [K]
	Block[ 4] 0.00000            Van der Waals: 0.00000            Coulomb: 0.00000            [K]
	------------------------------------------------------------------------------
	Average   0.00000            Van der Waals: 0.000000           Coulomb: 0.00000            [K]
	      +/- 0.00000                       +/- 0.000000                +/- 0.00000            [K]

Average Adsorbate-Cation energy:
================================
	Block[ 0] 0.00000            Van der Waals: 0.00000            Coulomb: 0.00000            [K]
	Block[ 1] 0.00000            Van der Waals: 0.00000            Coulomb: 0.00000            [K]
	Block[ 2] 0.00000            Van der Waals: 0.00000            Coulomb: 0.00000            [K]
	Block[ 3] 0.00000            Van der Waals: 0.00000            Coulomb: 0.00000            [K]
	Block[ 4] 0.00000            Van der Waals: 0.00000            Coulomb: 0.00000            [K]
	------------------------------------------------------------------------------
	Average   0.00000            Van der Waals: 0.000000           Coulomb: 0.00000            [K]
	      +/- 0.00000                       +/- 0.000000                +/- 0.00000            [K]

Host polarization energy:
=======================
	Block[ 0]            0.00000 [K]
	Block[ 1]            0.00000 [K]
	Block[ 2]            0.00000 [K]
	Block[ 3]            0.00000 [K]
	Block[ 4]            0.00000 [K]
	------------------------------------------------------------------------------
	Average              0.00000 [K] +/-            0.00000 [K]

Adsorbate polarization energy:
=======================
	Block[ 0]            0.00000 [K]
	Block[ 1]            0.00000 [K]
	Block[ 2]            0.00000 [K]
	Block[ 3]            0.00000 [K]
	Block[ 4]            0.00000 [K]
	------------------------------------------------------------------------------
	Average              0.00000 [K] +/-            0.00000 [K]

Cation polarization energy:
=======================
	Block[ 0]            0.00000 [K]
	Block[ 1]            0.00000 [K]
	Block[ 2]            0.00000 [K]
	Block[ 3]            0.00000 [K]
	Block[ 4]            0.00000 [K]
	------------------------------------------------------------------------------
	Average              0.00000 [K] +/-            0.00000 [K]

Host back-polarization energy:
=======================
	Block[ 0]            0.00000 [K]
	Block[ 1]            0.00000 [K]
	Block[ 2]            0.00000 [K]
	Block[ 3]            0.00000 [K]
	Block[ 4]            0.00000 [K]
	------------------------------------------------------------------------------
	Average              0.00000 [K] +/-            0.00000 [K]

Adsorbate back-polarization energy:
=======================
	Block[ 0]            0.00000 [K]
	Block[ 1]            0.00000 [K]
	Block[ 2]            0.00000 [K]
	Block[ 3]            0.00000 [K]
	Block[ 4]            0.00000 [K]
	------------------------------------------------------------------------------
	Average              0.00000 [K] +/-            0.00000 [K]

Cation back-polarization energy:
=======================
	Block[ 0]            0.00000 [K]
	Block[ 1]            0.00000 [K]
	Block[ 2]            0.00000 [K]
	Block[ 3]            0.00000 [K]
	Block[ 4]            0.00000 [K]
	------------------------------------------------------------------------------
	Average              0.00000 [K] +/-            0.00000 [K]

Tail-correction energy:
=======================
	Block[ 0]            0.00000 [K]
	Block[ 1]            0.00000 [K]
	Block[ 2]            0.00000 [K]
	Block[ 3]            0.00000 [K]
	Block[ 4]            0.00000 [K]
	------------------------------------------------------------------------------
	Average              0.00000 [K] +/-            0.00000 [K]

Distance-constraints energy:
=======================
	Block[ 0]            0.00000 [K]
	Block[ 1]            0.00000 [K]
	Block[ 2]            0.00000 [K]
	Block[ 3]            0.00000 [K]
	Block[ 4]            0.00000 [K]
	------------------------------------------------------------------------------
	Average              0.00000 [K] +/-            0.00000 [K]

Angle-constraints energy:
=======================
	Block[ 0]            0.00000 [K]
	Block[ 1]            0.00000 [K]
	Block[ 2]            0.00000 [K]
	Block[ 3]            0.00000 [K]
	Block[ 4]            0.00000 [K]
	------------------------------------------------------------------------------
	Average              0.00000 [K] +/-            0.00000 [K]

Dihedral-constraints energy:
=======================
	Block[ 0]            0.00000 [K]
	Block[ 1]            0.00000 [K]
	Block[ 2]            0.00000 [K]
	Block[ 3]            0.00000 [K]
	Block[ 4]            0.00000 [K]
	------------------------------------------------------------------------------
	Average              0.00000 [K] +/-            0.00000 [K]

Inversion-bend constraints energy:
=======================
	Block[ 0]            0.00000 [K]
	Block[ 1]            0.00000 [K]
	Block[ 2]            0.00000 [K]
	Block[ 3]            0.00000 [K]
	Block[ 4]            0.00000 [K]
	------------------------------------------------------------------------------
	Average              0.00000 [K] +/-            0.00000 [K]

Out-of-plane-distance constraints energy:
=======================
	Block[ 0]            0.00000 [K]
	Block[ 1]            0.00000 [K]
	Block[ 2]            0.00000 [K]
	Block[ 3]            0.00000 [K]
	Block[ 4]            0.00000 [K]
	------------------------------------------------------------------------------
	Average              0.00000 [K] +/-            0.00000 [K]

Exclusion-constraints energy:
=======================
	Block[ 0]            0.00000 [K]
	Block[ 1]            0.00000 [K]
	Block[ 2]            0.00000 [K]
	Block[ 3]            0.00000 [K]
	Block[ 4]            0.00000 [K]
	------------------------------------------------------------------------------
	Average              0.00000 [K] +/-            0.00000 [K]

Total energy:
=============
	Block[ 0]        -3145.24703 [K]
	Block[ 1]        -3143.00358 [K]
	Block[ 2]        -3126.35561 [K]
	Block[ 3]        -3141.53335 [K]
	Block[ 4]        -3139.91360 [K]
	------------------------------------------------------------------------------
	Average          -3139.21064 [K] +/-            9.24798 [K]

Number of molecules:
====================

Component 0 [methane]
-------------------------------------------------------------
	Block[ 0] 1.00000            [-]
	Block[ 1] 1.00000            [-]
	Block[ 2] 1.00000            [-]
	Block[ 3] 1.00000            [-]
	Block[ 4] 1.00000            [-]
	------------------------------------------------------------------------------
	Average loading absolute                              1.0000000000 +/-       0.0000000183 [-]
	Average loading absolute [molecules/unit cell]        0.0500000000 +/-       0.0000000009 [-]
	Average loading absolute [mol/kg framework]                  0.0462592583 +/-       0.0000000008 [-]
	Average loading absolute [milligram/gram framework]          0.7421123016 +/-       0.0000000136 [-]
	Average loading absolute [cm^3 (STP)/gr framework]           1.0368538946 +/-       0.0000000190 [-]
	Average loading absolute [cm^3 (STP)/cm^3 framework]         1.5780496888 +/-       0.0000000288 [-]

	Block[ 0] 1.00000            [-]
	Block[ 1] 1.00000            [-]
	Block[ 2] 1.00000            [-]
	Block[ 3] 1.00000            [-]
	Block[ 4] 1.00000            [-]
	------------------------------------------------------------------------------
	Average loading excess                              1.0000000000 +/-       0.0000000183 [-]
	Average loading excess [molecules/unit cell]        0.0500000000 +/-       0.0000000009 [-]
	Average loading excess [mol/kg framework]                    0.0462592583 +/-       0.0000000008 [-]
	Average loading excess [milligram/gram framework]            0.7421123016 +/-       0.0000000136 [-]
	Average loading excess [cm^3 (STP)/gr framework]             1.0368538946 +/-       0.0000000190 [-]
	Average loading excess [cm^3 (STP)/cm^3 framework]           1.5780496888 +/-       0.0000000288 [-]


Average Widom Rosenbluth factor:
================================
	Block[ 0] 0 [-]
	Block[ 1] 0 [-]
	Block[ 2] 0 [-]
	Block[ 3] 0 [-]
	Block[ 4] 0 [-]
	------------------------------------------------------------------------------
	[methane] Average Widom Rosenbluth-weight:   0 +/- 0.000000 [-]

Average Widom chemical potential:
=================================
	Block[ 0] 0 [-]
	Block[ 1] 0 [-]
	Block[ 2] 0 [-]
	Block[ 3] 0 [-]
	Block[ 4] 0 [-]
	------------------------------------------------------------------------------
	[methane] Average chemical potential:   0 +/- 0.000000 [K]

Average Widom Ideal-gas contribution:
=====================================
	Block[ 0] 0 [-]
	Block[ 1] 0 [-]
	Block[ 2] 0 [-]
	Block[ 3] 0 [-]
	Block[ 4] 0 [-]
	------------------------------------------------------------------------------
	[methane] Average Widom Ideal-gas chemical potential:   0 +/- 0.000000 [-]

Average Widom excess contribution:
==================================
	Block[ 0] 0 [-]
	Block[ 1] 0 [-]
	Block[ 2] 0 [-]
	Block[ 3] 0 [-]
	Block[ 4] 0 [-]
	------------------------------------------------------------------------------
	[methane] Average Widom excess chemical potential:   0 +/- 0.000000 [-]

Average Gibbs Widom Rosenbluth factor:
======================================
	Block[ 0] 0 [-]
	Block[ 1] 0 [-]
	Block[ 2] 0 [-]
	Block[ 3] 0 [-]
	Block[ 4] 0 [-]
	------------------------------------------------------------------------------
	[methane] Average Gibbs Widom Rosenbluth-weight:   0 +/- 0.000000 [-]

Average Gibbs Widom chemical potential:
=======================================
	Block[ 0] 0 [-]
	Block[ 1] 0 [-]
	Block[ 2] 0 [-]
	Block[ 3] 0 [-]
	Block[ 4] 0 [-]
	------------------------------------------------------------------------------
	[methane] Average Gibbs chemical potential:   0 +/- 0.000000 [K]

Average Gibbs Widom Ideal-gas contribution:
===========================================
	Block[ 0] 0 [-]
	Block[ 1] 0 [-]
	Block[ 2] 0 [-]
	Block[ 3] 0 [-]
	Block[ 4] 0 [-]
	------------------------------------------------------------------------------
	[methane] Average Gibbs Ideal-gas chemical potential:   0 +/- 0.000000 [-]

Average Gibbs Widom excess contribution:
===========================================
	Block[ 0] 0 [-]
	Block[ 1] 0 [-]
	Block[ 2] 0 [-]
	Block[ 3] 0 [-]
	Block[ 4] 0 [-]
	------------------------------------------------------------------------------
	[methane] Average Gibbs excess chemical potential:   0 +/- 0.000000 [-]

Average Henry coefficient:
==========================
	Block[ 0] 0 [mol/kg/Pa]
	Block[ 1] 0 [mol/kg/Pa]
	Block[ 2] 0 [mol/kg/Pa]
	Block[ 3] 0 [mol/kg/Pa]
	Block[ 4] 0 [mol/kg/Pa]
	------------------------------------------------------------------------------
	[methane] Average Henry coefficient:  0 +/- 0 [mol/kg/Pa]

Average adsorption energy <U_gh>_1-<U_h>_0 obtained from Widom-insertion:
(Note: the total heat of adsorption is dH=<U_gh>_1-<U_h>_0 - <U_g> - RT)
=========================================================================

Simulation finished,  0 warnings


Thu Jun 23 04:28:14 2022
Simulation finished on Thursday, June 23.
The end time was 04:28 AM.

