# vtk DataFile Version 1.0
Cube
ASCII

DATASET POLYDATA
POINTS 6 float
11.110306 5.793809 -0.194021
11.287046 4.981046 0.614545
11.463787 4.168282 1.423110
8.899777 5.793809 24.501442
9.076518 4.981046 25.310008
9.253259 4.168282 26.118574
LINES 4 12
2 0 1
2 1 2
2 3 4
2 4 5
POINT_DATA 6
SCALARS my_scalars float
LOOKUP_TABLE default
1.52
1.7
1.52
1.52
1.7
1.52
VECTORS vectors float
0.03125 0 0
0.3125 0 0
0.03125 0 0
0.03125 0 0
0.3125 0 0
0.03125 0 0
