# vtk DataFile Version 1.0
Cube
ASCII

DATASET POLYDATA
POINTS 1 float
29.223972 0.514112 24.788605
LINES 0 0
POINT_DATA 1
SCALARS my_scalars float
LOOKUP_TABLE default
1.7
VECTORS vectors float
0.3125 0 0
