# vtk DataFile Version 1.0
Cube
ASCII

DATASET POLYDATA
POINTS 3 float
-10.611045 29.383887 23.268392
-11.141597 29.507157 24.292559
-11.672148 29.630427 25.316727
LINES 2 6
2 0 1
2 1 2
POINT_DATA 3
SCALARS my_scalars float
LOOKUP_TABLE default
1.52
1.7
1.52
VECTORS vectors float
0.03125 0 0
0.3125 0 0
0.03125 0 0
