# vtk DataFile Version 1.0
Cube
ASCII

DATASET POLYDATA
POINTS 2 float
-1.230121 12.760218 14.570444
25.540879 12.760218 14.570444
LINES 0 0
POINT_DATA 2
SCALARS my_scalars float
LOOKUP_TABLE default
1.7
1.7
VECTORS vectors float
0.3125 0 0
0.3125 0 0
