# vtk DataFile Version 1.0
Cube
ASCII

DATASET POLYDATA
POINTS 720 float
6.925658 4.904447 25.309303
6.925658 18.289947 11.923803
20.311158 4.904447 11.923803
20.311158 18.289947 25.309303
19.845342 21.866553 25.309303
19.845342 8.481053 11.923803
6.459842 21.866553 11.923803
6.459842 8.481053 25.309303
19.845342 4.904447 1.461697
19.845342 18.289947 14.847197
6.459842 4.904447 14.847197
6.459842 18.289947 1.461697
6.925658 21.866553 1.461697
6.925658 8.481053 14.847197
20.311158 21.866553 14.847197
20.311158 8.481053 1.461697
25.309303 6.925658 4.904447
25.309303 20.311158 18.289947
11.923803 6.925658 18.289947
11.923803 20.311158 4.904447
25.309303 19.845342 21.866553
25.309303 6.459842 8.481053
11.923803 19.845342 8.481053
11.923803 6.459842 21.866553
1.461697 19.845342 4.904447
1.461697 6.459842 18.289947
14.847197 19.845342 18.289947
14.847197 6.459842 4.904447
1.461697 6.925658 21.866553
1.461697 20.311158 8.481053
14.847197 6.925658 8.481053
14.847197 20.311158 21.866553
4.904447 25.309303 6.925658
4.904447 11.923803 20.311158
18.289947 25.309303 20.311158
18.289947 11.923803 6.925658
21.866553 25.309303 19.845342
21.866553 11.923803 6.459842
8.481053 25.309303 6.459842
8.481053 11.923803 19.845342
4.904447 1.461697 19.845342
4.904447 14.847197 6.459842
18.289947 1.461697 6.459842
18.289947 14.847197 19.845342
21.866553 1.461697 6.925658
21.866553 14.847197 20.311158
8.481053 1.461697 20.311158
8.481053 14.847197 6.925658
4.904447 6.925658 1.461697
4.904447 20.311158 14.847197
18.289947 6.925658 14.847197
18.289947 20.311158 1.461697
21.866553 19.845342 1.461697
21.866553 6.459842 14.847197
8.481053 19.845342 14.847197
8.481053 6.459842 1.461697
4.904447 19.845342 25.309303
4.904447 6.459842 11.923803
18.289947 19.845342 11.923803
18.289947 6.459842 25.309303
21.866553 6.925658 25.309303
21.866553 20.311158 11.923803
8.481053 6.925658 11.923803
8.481053 20.311158 25.309303
6.925658 25.309303 21.866553
6.925658 11.923803 8.481053
20.311158 25.309303 8.481053
20.311158 11.923803 21.866553
19.845342 25.309303 4.904447
19.845342 11.923803 18.289947
6.459842 25.309303 18.289947
6.459842 11.923803 4.904447
19.845342 1.461697 21.866553
19.845342 14.847197 8.481053
6.459842 1.461697 8.481053
6.459842 14.847197 21.866553
6.925658 1.461697 4.904447
6.925658 14.847197 18.289947
20.311158 1.461697 18.289947
20.311158 14.847197 4.904447
25.309303 4.904447 19.845342
25.309303 18.289947 6.459842
11.923803 4.904447 6.459842
11.923803 18.289947 19.845342
25.309303 21.866553 6.925658
25.309303 8.481053 20.311158
11.923803 21.866553 20.311158
11.923803 8.481053 6.925658
1.461697 4.904447 6.925658
1.461697 18.289947 20.311158
14.847197 4.904447 20.311158
14.847197 18.289947 6.925658
1.461697 21.866553 19.845342
1.461697 8.481053 6.459842
14.847197 21.866553 6.459842
14.847197 8.481053 19.845342
19.845342 21.866553 1.461697
19.845342 8.481053 14.847197
6.459842 21.866553 14.847197
6.459842 8.481053 1.461697
6.925658 4.904447 1.461697
6.925658 18.289947 14.847197
20.311158 4.904447 14.847197
20.311158 18.289947 1.461697
6.925658 21.866553 25.309303
6.925658 8.481053 11.923803
20.311158 21.866553 11.923803
20.311158 8.481053 25.309303
19.845342 4.904447 25.309303
19.845342 18.289947 11.923803
6.459842 4.904447 11.923803
6.459842 18.289947 25.309303
1.461697 19.845342 21.866553
1.461697 6.459842 8.481053
14.847197 19.845342 8.481053
14.847197 6.459842 21.866553
1.461697 6.925658 4.904447
1.461697 20.311158 18.289947
14.847197 6.925658 18.289947
14.847197 20.311158 4.904447
25.309303 6.925658 21.866553
25.309303 20.311158 8.481053
11.923803 6.925658 8.481053
11.923803 20.311158 21.866553
25.309303 19.845342 4.904447
25.309303 6.459842 18.289947
11.923803 19.845342 18.289947
11.923803 6.459842 4.904447
21.866553 1.461697 19.845342
21.866553 14.847197 6.459842
8.481053 1.461697 6.459842
8.481053 14.847197 19.845342
4.904447 1.461697 6.925658
4.904447 14.847197 20.311158
18.289947 1.461697 20.311158
18.289947 14.847197 6.925658
21.866553 25.309303 6.925658
21.866553 11.923803 20.311158
8.481053 25.309303 20.311158
8.481053 11.923803 6.925658
4.904447 25.309303 19.845342
4.904447 11.923803 6.459842
18.289947 25.309303 6.459842
18.289947 11.923803 19.845342
21.866553 19.845342 25.309303
21.866553 6.459842 11.923803
8.481053 19.845342 11.923803
8.481053 6.459842 25.309303
4.904447 6.925658 25.309303
4.904447 20.311158 11.923803
18.289947 6.925658 11.923803
18.289947 20.311158 25.309303
21.866553 6.925658 1.461697
21.866553 20.311158 14.847197
8.481053 6.925658 14.847197
8.481053 20.311158 1.461697
4.904447 19.845342 1.461697
4.904447 6.459842 14.847197
18.289947 19.845342 14.847197
18.289947 6.459842 1.461697
19.845342 1.461697 4.904447
19.845342 14.847197 18.289947
6.459842 1.461697 18.289947
6.459842 14.847197 4.904447
6.925658 1.461697 21.866553
6.925658 14.847197 8.481053
20.311158 1.461697 8.481053
20.311158 14.847197 21.866553
6.925658 25.309303 4.904447
6.925658 11.923803 18.289947
20.311158 25.309303 18.289947
20.311158 11.923803 4.904447
19.845342 25.309303 21.866553
19.845342 11.923803 8.481053
6.459842 25.309303 8.481053
6.459842 11.923803 21.866553
1.461697 21.866553 6.925658
1.461697 8.481053 20.311158
14.847197 21.866553 20.311158
14.847197 8.481053 6.925658
1.461697 4.904447 19.845342
1.461697 18.289947 6.459842
14.847197 4.904447 6.459842
14.847197 18.289947 19.845342
25.309303 21.866553 19.845342
25.309303 8.481053 6.459842
11.923803 21.866553 6.459842
11.923803 8.481053 19.845342
25.309303 4.904447 6.925658
25.309303 18.289947 20.311158
11.923803 4.904447 20.311158
11.923803 18.289947 6.925658
5.562211 5.562211 0.000000
5.562211 5.562211 26.771000
3.892236 3.892236 0.000000
3.892236 3.892236 26.771000
5.562211 18.947711 13.385500
3.892236 17.277736 13.385500
18.947711 5.562211 13.385500
17.277736 3.892236 13.385500
18.947711 18.947711 0.000000
18.947711 18.947711 26.771000
17.277736 17.277736 0.000000
17.277736 17.277736 26.771000
21.208789 21.208789 0.000000
21.208789 21.208789 26.771000
22.878764 22.878764 0.000000
22.878764 22.878764 26.771000
21.208789 7.823289 13.385500
22.878764 9.493264 13.385500
7.823289 21.208789 13.385500
9.493264 22.878764 13.385500
7.823289 7.823289 0.000000
7.823289 7.823289 26.771000
9.493264 9.493264 0.000000
9.493264 9.493264 26.771000
21.208789 5.562211 0.000000
21.208789 5.562211 26.771000
22.878764 3.892236 0.000000
22.878764 3.892236 26.771000
21.208789 18.947711 13.385500
22.878764 17.277736 13.385500
7.823289 5.562211 13.385500
9.493264 3.892236 13.385500
7.823289 18.947711 0.000000
7.823289 18.947711 26.771000
9.493264 17.277736 0.000000
9.493264 17.277736 26.771000
5.562211 21.208789 0.000000
5.562211 21.208789 26.771000
3.892236 22.878764 0.000000
3.892236 22.878764 26.771000
5.562211 7.823289 13.385500
3.892236 9.493264 13.385500
18.947711 21.208789 13.385500
17.277736 22.878764 13.385500
18.947711 7.823289 0.000000
18.947711 7.823289 26.771000
17.277736 9.493264 0.000000
17.277736 9.493264 26.771000
0.000000 5.562211 5.562211
26.771000 5.562211 5.562211
0.000000 3.892236 3.892236
26.771000 3.892236 3.892236
0.000000 18.947711 18.947711
26.771000 18.947711 18.947711
0.000000 17.277736 17.277736
26.771000 17.277736 17.277736
13.385500 5.562211 18.947711
13.385500 3.892236 17.277736
13.385500 18.947711 5.562211
13.385500 17.277736 3.892236
0.000000 21.208789 21.208789
26.771000 21.208789 21.208789
0.000000 22.878764 22.878764
26.771000 22.878764 22.878764
0.000000 7.823289 7.823289
26.771000 7.823289 7.823289
0.000000 9.493264 9.493264
26.771000 9.493264 9.493264
13.385500 21.208789 7.823289
13.385500 22.878764 9.493264
13.385500 7.823289 21.208789
13.385500 9.493264 22.878764
0.000000 21.208789 5.562211
26.771000 21.208789 5.562211
0.000000 22.878764 3.892236
26.771000 22.878764 3.892236
0.000000 7.823289 18.947711
26.771000 7.823289 18.947711
0.000000 9.493264 17.277736
26.771000 9.493264 17.277736
13.385500 21.208789 18.947711
13.385500 22.878764 17.277736
13.385500 7.823289 5.562211
13.385500 9.493264 3.892236
0.000000 5.562211 21.208789
26.771000 5.562211 21.208789
0.000000 3.892236 22.878764
26.771000 3.892236 22.878764
0.000000 18.947711 7.823289
26.771000 18.947711 7.823289
0.000000 17.277736 9.493264
26.771000 17.277736 9.493264
13.385500 5.562211 7.823289
13.385500 3.892236 9.493264
13.385500 18.947711 21.208789
13.385500 17.277736 22.878764
5.562211 0.000000 5.562211
5.562211 26.771000 5.562211
3.892236 0.000000 3.892236
3.892236 26.771000 3.892236
5.562211 13.385500 18.947711
3.892236 13.385500 17.277736
18.947711 0.000000 18.947711
18.947711 26.771000 18.947711
17.277736 0.000000 17.277736
17.277736 26.771000 17.277736
18.947711 13.385500 5.562211
17.277736 13.385500 3.892236
21.208789 0.000000 21.208789
21.208789 26.771000 21.208789
22.878764 0.000000 22.878764
22.878764 26.771000 22.878764
21.208789 13.385500 7.823289
22.878764 13.385500 9.493264
7.823289 0.000000 7.823289
7.823289 26.771000 7.823289
9.493264 0.000000 9.493264
9.493264 26.771000 9.493264
7.823289 13.385500 21.208789
9.493264 13.385500 22.878764
5.562211 0.000000 21.208789
5.562211 26.771000 21.208789
3.892236 0.000000 22.878764
3.892236 26.771000 22.878764
5.562211 13.385500 7.823289
3.892236 13.385500 9.493264
18.947711 0.000000 7.823289
18.947711 26.771000 7.823289
17.277736 0.000000 9.493264
17.277736 26.771000 9.493264
18.947711 13.385500 21.208789
17.277736 13.385500 22.878764
21.208789 0.000000 5.562211
21.208789 26.771000 5.562211
22.878764 0.000000 3.892236
22.878764 26.771000 3.892236
21.208789 13.385500 18.947711
22.878764 13.385500 17.277736
7.823289 0.000000 18.947711
7.823289 26.771000 18.947711
9.493264 0.000000 17.277736
9.493264 26.771000 17.277736
7.823289 13.385500 5.562211
9.493264 13.385500 3.892236
8.622939 4.762561 23.692335
7.964373 5.421128 24.891676
8.622939 18.148061 10.306835
7.964373 18.806628 11.506176
18.148061 22.008439 23.692335
18.806627 21.349872 24.891676
18.148061 8.622939 10.306835
18.806628 7.964373 11.506176
4.762561 8.622939 23.692335
[...]
POINT_DATA 720
SCALARS my_scalars float
LOOKUP_TABLE default
1.52
1.52
1.52
1.52
1.52
1.52
1.52
1.52
1.52
1.52
1.52
1.52
1.52
1.52
1.52
1.52
1.52
1.52
1.52
1.52
1.52
1.52
1.52
1.52
1.52
1.52
1.52
1.52
1.52
1.52
1.52
1.52
1.52
1.52
1.52
1.52
1.52
1.52
1.52
1.52
1.52
1.52
1.52
1.52
1.52
1.52
1.52
1.52
1.52
1.52
1.52
1.52
1.52
1.52
1.52
1.52
1.52
1.52
1.52
1.52
1.52
1.52
1.52
1.52
1.52
1.52
1.52
1.52
1.52
1.52
1.52
1.52
1.52
1.52
1.52
1.52
1.52
1.52
1.52
1.52
1.52
1.52
1.52
1.52
1.52
1.52
1.52
1.52
1.52
1.52
1.52
1.52
1.52
1.52
1.52
1.52
1.52
1.52
1.52
1.52
1.52
1.52
1.52
1.52
1.52
1.52
1.52
1.52
1.52
1.52
1.52
1.52
1.52
1.52
1.52
1.52
1.52
1.52
1.52
1.52
1.52
1.52
1.52
1.52
1.52
1.52
1.52
1.52
1.52
1.52
1.52
1.52
1.52
1.52
1.52
1.52
1.52
1.52
1.52
1.52
1.52
1.52
1.52
1.52
1.52
1.52
1.52
1.52
1.52
1.52
1.52
1.52
1.52
1.52
1.52
1.52
1.52
1.52
1.52
1.52
1.52
1.52
1.52
1.52
1.52
1.52
1.52
1.52
1.52
1.52
1.52
1.52
1.52
1.52
1.52
1.52
1.52
1.52
1.52
1.52
1.52
1.52
1.52
1.52
1.52
1.52
1.52
1.52
1.52
1.52
1.52
1.52
2
2
1.75
1.75
2
1.75
2
1.75
2
2
1.75
1.75
2
2
1.75
1.75
2
1.75
2
1.75
2
2
1.75
1.75
2
2
1.75
1.75
2
1.75
2
1.75
2
2
1.75
1.75
2
2
1.75
1.75
2
1.75
2
1.75
2
2
1.75
1.75
2
2
1.75
1.75
2
2
1.75
1.75
2
1.75
2
1.75
2
2
1.75
1.75
2
2
1.75
1.75
2
1.75
2
1.75
2
2
1.75
1.75
2
2
1.75
1.75
2
1.75
2
1.75
2
2
1.75
1.75
2
2
1.75
1.75
2
1.75
2
1.75
2
2
1.75
1.75
2
1.75
2
2
1.75
1.75
2
1.75
2
2
1.75
1.75
2
1.75
2
2
1.75
1.75
2
1.75
2
2
1.75
1.75
2
1.75
2
2
1.75
1.75
2
1.75
2
2
1.75
1.75
2
1.75
2
2
1.75
1.75
2
1.75
1.7
1.7
1.7
1.7
1.7
1.7
1.7
1.7
1.7
1.7
1.7
1.7
1.7
1.7
1.7
1.7
1.7
1.7
1.7
1.7
1.7
1.7
1.7
1.7
1.7
1.7
1.7
1.7
1.7
1.7
1.7
1.7
1.7
1.7
1.7
1.7
1.7
1.7
1.7
1.7
1.7
1.7
1.7
1.7
1.7
1.7
1.7
1.7
1.7
1.7
1.7
1.7
1.7
1.7
1.7
1.7
1.7
1.7
1.7
1.7
1.7
1.7
1.7
1.7
1.7
1.7
1.7
1.7
1.7
1.7
1.7
1.7
1.7
1.7
1.7
1.7
1.7
1.7
1.7
1.7
1.7
1.7
1.7
1.7
1.7
1.7
1.7
1.7
1.7
1.7
1.7
1.7
1.7
1.7
1.7
1.7
1.7
1.7
1.7
1.7
1.7
1.7
1.7
1.7
1.7
1.7
1.7
1.7
1.7
1.7
1.7
1.7
1.7
1.7
1.7
1.7
1.7
1.7
1.7
1.7
1.7
1.7
1.7
1.7
1.7
1.7
1.7
1.7
1.7
1.7
1.7
1.7
1.7
1.7
1.7
1.7
1.7
1.7
1.7
1.7
1.7
1.7
1.7
1.7
1.7
1.7
1.7
1.7
1.7
1.7
1.7
1.7
1.7
1.7
1.7
1.7
1.7
1.7
1.7
1.7
1.7
1.7
1.7
1.7
1.7
1.7
1.7
1.7
1.7
1.7
1.7
1.7
1.7
1.7
1.7
1.7
1.7
1.7
1.7
1.7
1.7
1.7
1.7
1.7
1.7
1.7
1.7
1.7
1.7
1.7
1.7
1.7
1.7
1.09
1.7
1.09
1.7
1.09
1.7
1.09
1.7
1.09
1.7
1.09
1.7
1.09
1.7
1.09
1.7
1.09
1.7
1.09
1.7
1.09
1.7
1.09
1.7
1.09
1.7
1.09
1.7
1.09
1.7
1.09
1.7
1.09
1.7
1.09
1.7
1.09
1.7
1.09
1.7
1.09
1.7
1.09
1.7
1.09
1.7
1.09
1.7
1.09
1.7
1.09
1.7
1.09
1.7
1.09
1.7
1.09
1.7
1.09
1.7
1.09
1.7
1.09
1.7
1.09
1.7
1.09
1.7
1.09
1.7
1.09
1.7
1.09
1.7
1.09
1.7
1.09
1.7
1.09
1.7
1.09
1.7
1.09
1.7
1.09
1.7
1.09
1.7
1.09
1.7
1.09
1.7
1.09
1.7
1.09
1.7
1.09
1.7
1.09
1.7
1.09
1.7
1.09
1.7
1.09
1.7
1.09
1.7
1.09
1.7
1.09
1.7
1.09
1.7
1.09
1.7
1.09
1.7
1.09
1.7
1.09
1.7
1.09
1.7
1.09
1.7
1.09
1.7
1.09
1.7
1.09
1.7
1.09
1.7
1.09
1.7
1.09
1.7
1.09
1.7
1.09
1.7
1.09
1.7
1.09
1.7
1.09
1.7
1.09
1.7
1.09
1.7
1.09
1.7
1.09
1.7
1.09
1.7
1.09
1.7
1.09
1.7
1.09
1.7
1.09
1.7
1.09
1.7
1.09
1.7
1.09
1.7
1.09
1.7
1.09
1.7
1.09
1.7
1.09
1.7
1.09
1.7
1.09
1.7
1.09
1.7
1.09
1.7
1.09
1.7
1.09
VECTORS vectors float
0.03125 0 0
0.03125 0 0
0.03125 0 0
0.03125 0 0
0.03125 0 0
0.03125 0 0
0.03125 0 0
0.03125 0 0
0.03125 0 0
0.03125 0 0
0.03125 0 0
0.03125 0 0
0.03125 0 0
0.03125 0 0
0.03125 0 0
0.03125 0 0
0.03125 0 0
0.03125 0 0
0.03125 0 0
0.03125 0 0
0.03125 0 0
0.03125 0 0
0.03125 0 0
0.03125 0 0
0.03125 0 0
0.03125 0 0
0.03125 0 0
0.03125 0 0
0.03125 0 0
0.03125 0 0
0.03125 0 0
0.03125 0 0
0.03125 0 0
0.03125 0 0
0.03125 0 0
0.03125 0 0
0.03125 0 0
0.03125 0 0
0.03125 0 0
0.03125 0 0
0.03125 0 0
0.03125 0 0
0.03125 0 0
0.03125 0 0
0.03125 0 0
0.03125 0 0
0.03125 0 0
0.03125 0 0
0.03125 0 0
0.03125 0 0
0.03125 0 0
0.03125 0 0
0.03125 0 0
0.03125 0 0
0.03125 0 0
0.03125 0 0
0.03125 0 0
0.03125 0 0
0.03125 0 0
0.03125 0 0
0.03125 0 0
0.03125 0 0
0.03125 0 0
0.03125 0 0
0.03125 0 0
0.03125 0 0
0.03125 0 0
0.03125 0 0
0.03125 0 0
0.03125 0 0
0.03125 0 0
0.03125 0 0
0.03125 0 0
0.03125 0 0
0.03125 0 0
0.03125 0 0
0.03125 0 0
0.03125 0 0
0.03125 0 0
0.03125 0 0
0.03125 0 0
0.03125 0 0
0.03125 0 0
0.03125 0 0
0.03125 0 0
0.03125 0 0
0.03125 0 0
0.03125 0 0
0.03125 0 0
0.03125 0 0
0.03125 0 0
0.03125 0 0
0.03125 0 0
0.03125 0 0
0.03125 0 0
0.03125 0 0
0.03125 0 0
0.03125 0 0
0.03125 0 0
0.03125 0 0
0.03125 0 0
0.03125 0 0
0.03125 0 0
0.03125 0 0
0.03125 0 0
0.03125 0 0
0.03125 0 0
0.03125 0 0
0.03125 0 0
0.03125 0 0
0.03125 0 0
0.03125 0 0
0.03125 0 0
0.03125 0 0
0.03125 0 0
0.03125 0 0
0.03125 0 0
0.03125 0 0
0.03125 0 0
0.03125 0 0
0.03125 0 0
0.03125 0 0
0.03125 0 0
0.03125 0 0
0.03125 0 0
0.03125 0 0
0.03125 0 0
0.03125 0 0
0.03125 0 0
0.03125 0 0
0.03125 0 0
0.03125 0 0
0.03125 0 0
0.03125 0 0
0.03125 0 0
0.03125 0 0
0.03125 0 0
0.03125 0 0
0.03125 0 0
0.03125 0 0
0.03125 0 0
0.03125 0 0
0.03125 0 0
0.03125 0 0
0.03125 0 0
0.03125 0 0
0.03125 0 0
0.03125 0 0
0.03125 0 0
0.03125 0 0
0.03125 0 0
0.03125 0 0
0.03125 0 0
0.03125 0 0
0.03125 0 0
0.03125 0 0
0.03125 0 0
0.03125 0 0
0.03125 0 0
0.03125 0 0
0.03125 0 0
0.03125 0 0
0.03125 0 0
0.03125 0 0
0.03125 0 0
0.03125 0 0
0.03125 0 0
0.03125 0 0
0.03125 0 0
0.03125 0 0
0.03125 0 0
0.03125 0 0
0.03125 0 0
0.03125 0 0
0.03125 0 0
0.03125 0 0
0.03125 0 0
0.03125 0 0
0.03125 0 0
0.03125 0 0
0.03125 0 0
0.03125 0 0
0.03125 0 0
0.03125 0 0
0.03125 0 0
0.03125 0 0
0.03125 0 0
0.03125 0 0
0.03125 0 0
0.03125 0 0
0.03125 0 0
0.03125 0 0
0.4375 0 0
0.4375 0 0
0.4375 0 0
0.4375 0 0
0.4375 0 0
0.4375 0 0
0.4375 0 0
0.4375 0 0
0.4375 0 0
0.4375 0 0
0.4375 0 0
0.4375 0 0
0.4375 0 0
0.4375 0 0
0.4375 0 0
0.4375 0 0
0.4375 0 0
0.4375 0 0
0.4375 0 0
0.4375 0 0
0.4375 0 0
0.4375 0 0
0.4375 0 0
0.4375 0 0
0.4375 0 0
0.4375 0 0
0.4375 0 0
0.4375 0 0
0.4375 0 0
0.4375 0 0
0.4375 0 0
0.4375 0 0
0.4375 0 0
0.4375 0 0
0.4375 0 0
0.4375 0 0
0.4375 0 0
0.4375 0 0
0.4375 0 0
0.4375 0 0
0.4375 0 0
0.4375 0 0
0.4375 0 0
0.4375 0 0
0.4375 0 0
0.4375 0 0
0.4375 0 0
0.4375 0 0
0.4375 0 0
0.4375 0 0
0.4375 0 0
0.4375 0 0
0.4375 0 0
0.4375 0 0
0.4375 0 0
0.4375 0 0
0.4375 0 0
0.4375 0 0
0.4375 0 0
0.4375 0 0
0.4375 0 0
0.4375 0 0
0.4375 0 0
0.4375 0 0
0.4375 0 0
0.4375 0 0
0.4375 0 0
0.4375 0 0
0.4375 0 0
0.4375 0 0
0.4375 0 0
0.4375 0 0
0.4375 0 0
0.4375 0 0
0.4375 0 0
0.4375 0 0
0.4375 0 0
0.4375 0 0
0.4375 0 0
0.4375 0 0
0.4375 0 0
0.4375 0 0
0.4375 0 0
0.4375 0 0
0.4375 0 0
0.4375 0 0
0.4375 0 0
0.4375 0 0
0.4375 0 0
0.4375 0 0
0.4375 0 0
0.4375 0 0
0.4375 0 0
0.4375 0 0
0.4375 0 0
0.4375 0 0
0.4375 0 0
0.4375 0 0
0.4375 0 0
0.4375 0 0
0.4375 0 0
0.4375 0 0
0.4375 0 0
0.4375 0 0
0.4375 0 0
0.4375 0 0
0.4375 0 0
0.4375 0 0
0.4375 0 0
0.4375 0 0
0.4375 0 0
0.4375 0 0
0.4375 0 0
0.4375 0 0
0.4375 0 0
0.4375 0 0
0.4375 0 0
0.4375 0 0
0.4375 0 0
0.4375 0 0
0.4375 0 0
0.4375 0 0
0.4375 0 0
0.4375 0 0
0.4375 0 0
0.4375 0 0
0.4375 0 0
0.4375 0 0
0.4375 0 0
0.4375 0 0
0.4375 0 0
0.4375 0 0
0.4375 0 0
0.4375 0 0
0.4375 0 0
0.4375 0 0
0.4375 0 0
0.4375 0 0
0.4375 0 0
0.4375 0 0
0.4375 0 0
0.4375 0 0
0.4375 0 0
0.4375 0 0
0.3125 0 0
0.3125 0 0
0.3125 0 0
0.3125 0 0
0.3125 0 0
0.3125 0 0
0.3125 0 0
0.3125 0 0
0.3125 0 0
0.3125 0 0
0.3125 0 0
0.3125 0 0
0.3125 0 0
0.3125 0 0
0.3125 0 0
0.3125 0 0
0.3125 0 0
0.3125 0 0
0.3125 0 0
0.3125 0 0
0.3125 0 0
0.3125 0 0
0.3125 0 0
0.3125 0 0
0.3125 0 0
0.3125 0 0
0.3125 0 0
0.3125 0 0
0.3125 0 0
0.3125 0 0
0.3125 0 0
0.3125 0 0
0.3125 0 0
0.3125 0 0
0.3125 0 0
0.3125 0 0
0.3125 0 0
0.3125 0 0
0.3125 0 0
0.3125 0 0
0.3125 0 0
0.3125 0 0
0.3125 0 0
0.3125 0 0
0.3125 0 0
0.3125 0 0
0.3125 0 0
0.3125 0 0
0.3125 0 0
0.3125 0 0
0.3125 0 0
0.3125 0 0
0.3125 0 0
0.3125 0 0
0.3125 0 0
0.3125 0 0
0.3125 0 0
0.3125 0 0
0.3125 0 0
0.3125 0 0
0.3125 0 0
0.3125 0 0
0.3125 0 0
0.3125 0 0
0.3125 0 0
0.3125 0 0
0.3125 0 0
0.3125 0 0
0.3125 0 0
0.3125 0 0
0.3125 0 0
0.3125 0 0
0.3125 0 0
0.3125 0 0
0.3125 0 0
0.3125 0 0
0.3125 0 0
0.3125 0 0
0.3125 0 0
0.3125 0 0
0.3125 0 0
0.3125 0 0
0.3125 0 0
0.3125 0 0
0.3125 0 0
0.3125 0 0
0.3125 0 0
0.3125 0 0
0.3125 0 0
0.3125 0 0
0.3125 0 0
0.3125 0 0
0.3125 0 0
0.3125 0 0
0.3125 0 0
0.3125 0 0
0.3125 0 0
0.3125 0 0
0.3125 0 0
0.3125 0 0
0.3125 0 0
0.3125 0 0
0.3125 0 0
0.3125 0 0
0.3125 0 0
0.3125 0 0
0.3125 0 0
0.3125 0 0
0.3125 0 0
0.3125 0 0
0.3125 0 0
0.3125 0 0
0.3125 0 0
0.3125 0 0
0.3125 0 0
0.3125 0 0
0.3125 0 0
0.3125 0 0
0.3125 0 0
0.3125 0 0
0.3125 0 0
0.3125 0 0
0.3125 0 0
0.3125 0 0
0.3125 0 0
0.3125 0 0
0.3125 0 0
0.3125 0 0
0.3125 0 0
0.3125 0 0
0.3125 0 0
0.3125 0 0
0.3125 0 0
0.3125 0 0
0.3125 0 0
0.3125 0 0
0.3125 0 0
0.3125 0 0
0.3125 0 0
0.3125 0 0
0.3125 0 0
0.3125 0 0
0.3125 0 0
0.3125 0 0
0.3125 0 0
0.3125 0 0
0.3125 0 0
0.3125 0 0
0.3125 0 0
0.3125 0 0
0.3125 0 0
0.3125 0 0
0.3125 0 0
0.3125 0 0
0.3125 0 0
0.3125 0 0
0.3125 0 0
0.3125 0 0
0.3125 0 0
0.3125 0 0
0.3125 0 0
0.3125 0 0
0.3125 0 0
0.3125 0 0
0.3125 0 0
0.3125 0 0
0.3125 0 0
0.3125 0 0
0.3125 0 0
0.3125 0 0
0.3125 0 0
0.3125 0 0
0.3125 0 0
0.3125 0 0
0.3125 0 0
0.3125 0 0
0.3125 0 0
0.3125 0 0
0.3125 0 0
0.3125 0 0
0.3125 0 0
0.3125 0 0
0.3125 0 0
0.3125 0 0
0.3125 0 0
0.3125 0 0
0.3125 0 0
0.3125 0 0
0.3125 0 0
0.3125 0 0
0.3125 0 0
0.3125 0 0
0.3125 0 0
0.25 0 0
0.3125 0 0
0.25 0 0
0.3125 0 0
0.25 0 0
0.3125 0 0
0.25 0 0
0.3125 0 0
0.25 0 0
0.3125 0 0
0.25 0 0
0.3125 0 0
0.25 0 0
0.3125 0 0
0.25 0 0
0.3125 0 0
0.25 0 0
0.3125 0 0
0.25 0 0
0.3125 0 0
0.25 0 0
0.3125 0 0
0.25 0 0
0.3125 0 0
0.25 0 0
0.3125 0 0
0.25 0 0
0.3125 0 0
0.25 0 0
0.3125 0 0
0.25 0 0
0.3125 0 0
0.25 0 0
0.3125 0 0
0.25 0 0
0.3125 0 0
0.25 0 0
0.3125 0 0
0.25 0 0
0.3125 0 0
0.25 0 0
0.3125 0 0
0.25 0 0
0.3125 0 0
0.25 0 0
0.3125 0 0
0.25 0 0
0.3125 0 0
0.25 0 0
0.3125 0 0
0.25 0 0
0.3125 0 0
0.25 0 0
0.3125 0 0
0.25 0 0
0.3125 0 0
0.25 0 0
0.3125 0 0
0.25 0 0
0.3125 0 0
0.25 0 0
0.3125 0 0
0.25 0 0
0.3125 0 0
0.25 0 0
0.3125 0 0
0.25 0 0
0.3125 0 0
0.25 0 0
0.3125 0 0
0.25 0 0
0.3125 0 0
0.25 0 0
0.3125 0 0
0.25 0 0
0.3125 0 0
0.25 0 0
0.3125 0 0
0.25 0 0
0.3125 0 0
0.25 0 0
0.3125 0 0
0.25 0 0
0.3125 0 0
0.25 0 0
0.3125 0 0
0.25 0 0
0.3125 0 0
0.25 0 0
0.3125 0 0
0.25 0 0
0.3125 0 0
0.25 0 0
0.3125 0 0
0.25 0 0
0.3125 0 0
0.25 0 0
0.3125 0 0
0.25 0 0
0.3125 0 0
0.25 0 0
0.3125 0 0
0.25 0 0
0.3125 0 0
0.25 0 0
0.3125 0 0
0.25 0 0
0.3125 0 0
0.25 0 0
0.3125 0 0
0.25 0 0
0.3125 0 0
0.25 0 0
0.3125 0 0
0.25 0 0
0.3125 0 0
0.25 0 0
0.3125 0 0
0.25 0 0
0.3125 0 0
0.25 0 0
0.3125 0 0
0.25 0 0
0.3125 0 0
0.25 0 0
0.3125 0 0
0.25 0 0
0.3125 0 0
0.25 0 0
0.3125 0 0
0.25 0 0
0.3125 0 0
0.25 0 0
0.3125 0 0
0.25 0 0
0.3125 0 0
0.25 0 0
0.3125 0 0
0.25 0 0
0.3125 0 0
0.25 0 0
0.3125 0 0
0.25 0 0
0.3125 0 0
0.25 0 0
0.3125 0 0
0.25 0 0
0.3125 0 0
0.25 0 0
0.3125 0 0
0.25 0 0
0.3125 0 0
0.25 0 0
0.3125 0 0
0.25 0 0
0.3125 0 0
0.25 0 0
0.3125 0 0
0.25 0 0
0.3125 0 0
0.25 0 0
0.3125 0 0
0.25 0 0
0.3125 0 0
0.25 0 0
0.3125 0 0
0.25 0 0
0.3125 0 0
0.25 0 0
0.3125 0 0
0.25 0 0
0.3125 0 0
0.25 0 0
0.3125 0 0
0.25 0 0
0.3125 0 0
0.25 0 0
0.3125 0 0
0.25 0 0
0.3125 0 0
0.25 0 0
0.3125 0 0
0.25 0 0
0.3125 0 0
0.25 0 0
0.3125 0 0
0.25 0 0
0.3125 0 0
0.25 0 0
0.3125 0 0
0.25 0 0
