# vtk DataFile Version 1.0
Cube
ASCII

DATASET POLYDATA
POINTS 2 float
-0.118386 14.604854 11.901346
26.528614 14.604854 11.901346
LINES 0 0
POINT_DATA 2
SCALARS my_scalars float
LOOKUP_TABLE default
1.7
1.7
VECTORS vectors float
0.3125 0 0
0.3125 0 0
