# vtk DataFile Version 1.0
Cube
ASCII

DATASET POLYDATA
POINTS 720 float
6.464562 8.447099 1.414956
6.464562 21.770599 14.738456
19.788062 8.447099 14.738456
19.788062 21.770599 1.414956
20.182438 18.199901 1.414956
20.182438 4.876401 14.738456
6.858938 18.199901 14.738456
6.858938 4.876401 1.414956
20.182438 8.447099 25.232044
20.182438 21.770599 11.908544
6.858938 8.447099 11.908544
6.858938 21.770599 25.232044
6.464562 18.199901 25.232044
6.464562 4.876401 11.908544
19.788062 18.199901 11.908544
19.788062 4.876401 25.232044
1.414956 6.464562 8.447099
1.414956 19.788062 21.770599
14.738456 6.464562 21.770599
14.738456 19.788062 8.447099
1.414956 20.182438 18.199901
1.414956 6.858938 4.876401
14.738456 20.182438 4.876401
14.738456 6.858938 18.199901
25.232044 20.182438 8.447099
25.232044 6.858938 21.770599
11.908544 20.182438 21.770599
11.908544 6.858938 8.447099
25.232044 6.464562 18.199901
25.232044 19.788062 4.876401
11.908544 6.464562 4.876401
11.908544 19.788062 18.199901
8.447099 1.414956 6.464562
8.447099 14.738456 19.788062
21.770599 1.414956 19.788062
21.770599 14.738456 6.464562
18.199901 1.414956 20.182438
18.199901 14.738456 6.858938
4.876401 1.414956 6.858938
4.876401 14.738456 20.182438
8.447099 25.232044 20.182438
8.447099 11.908544 6.858938
21.770599 25.232044 6.858938
21.770599 11.908544 20.182438
18.199901 25.232044 6.464562
18.199901 11.908544 19.788062
4.876401 25.232044 19.788062
4.876401 11.908544 6.464562
8.447099 6.464562 25.232044
8.447099 19.788062 11.908544
21.770599 6.464562 11.908544
21.770599 19.788062 25.232044
18.199901 20.182438 25.232044
18.199901 6.858938 11.908544
4.876401 20.182438 11.908544
4.876401 6.858938 25.232044
8.447099 20.182438 1.414956
8.447099 6.858938 14.738456
21.770599 20.182438 14.738456
21.770599 6.858938 1.414956
18.199901 6.464562 1.414956
18.199901 19.788062 14.738456
4.876401 6.464562 14.738456
4.876401 19.788062 1.414956
6.464562 1.414956 18.199901
6.464562 14.738456 4.876401
19.788062 1.414956 4.876401
19.788062 14.738456 18.199901
20.182438 1.414956 8.447099
20.182438 14.738456 21.770599
6.858938 1.414956 21.770599
6.858938 14.738456 8.447099
20.182438 25.232044 18.199901
20.182438 11.908544 4.876401
6.858938 25.232044 4.876401
6.858938 11.908544 18.199901
6.464562 25.232044 8.447099
6.464562 11.908544 21.770599
19.788062 25.232044 21.770599
19.788062 11.908544 8.447099
1.414956 8.447099 20.182438
1.414956 21.770599 6.858938
14.738456 8.447099 6.858938
14.738456 21.770599 20.182438
1.414956 18.199901 6.464562
1.414956 4.876401 19.788062
14.738456 18.199901 19.788062
14.738456 4.876401 6.464562
25.232044 8.447099 6.464562
25.232044 21.770599 19.788062
11.908544 8.447099 19.788062
11.908544 21.770599 6.464562
25.232044 18.199901 20.182438
25.232044 4.876401 6.858938
11.908544 18.199901 6.858938
11.908544 4.876401 20.182438
20.182438 18.199901 25.232044
20.182438 4.876401 11.908544
6.858938 18.199901 11.908544
6.858938 4.876401 25.232044
6.464562 8.447099 25.232044
6.464562 21.770599 11.908544
19.788062 8.447099 11.908544
19.788062 21.770599 25.232044
6.464562 18.199901 1.414956
6.464562 4.876401 14.738456
19.788062 18.199901 14.738456
19.788062 4.876401 1.414956
20.182438 8.447099 1.414956
20.182438 21.770599 14.738456
6.858938 8.447099 14.738456
6.858938 21.770599 1.414956
25.232044 20.182438 18.199901
25.232044 6.858938 4.876401
11.908544 20.182438 4.876401
11.908544 6.858938 18.199901
25.232044 6.464562 8.447099
25.232044 19.788062 21.770599
11.908544 6.464562 21.770599
11.908544 19.788062 8.447099
1.414956 6.464562 18.199901
1.414956 19.788062 4.876401
14.738456 6.464562 4.876401
14.738456 19.788062 18.199901
1.414956 20.182438 8.447099
1.414956 6.858938 21.770599
14.738456 20.182438 21.770599
14.738456 6.858938 8.447099
18.199901 25.232044 20.182438
18.199901 11.908544 6.858938
4.876401 25.232044 6.858938
4.876401 11.908544 20.182438
8.447099 25.232044 6.464562
8.447099 11.908544 19.788062
21.770599 25.232044 19.788062
21.770599 11.908544 6.464562
18.199901 1.414956 6.464562
18.199901 14.738456 19.788062
4.876401 1.414956 19.788062
4.876401 14.738456 6.464562
8.447099 1.414956 20.182438
8.447099 14.738456 6.858938
21.770599 1.414956 6.858938
21.770599 14.738456 20.182438
18.199901 20.182438 1.414956
18.199901 6.858938 14.738456
4.876401 20.182438 14.738456
4.876401 6.858938 1.414956
8.447099 6.464562 1.414956
8.447099 19.788062 14.738456
21.770599 6.464562 14.738456
21.770599 19.788062 1.414956
18.199901 6.464562 25.232044
18.199901 19.788062 11.908544
4.876401 6.464562 11.908544
4.876401 19.788062 25.232044
8.447099 20.182438 25.232044
8.447099 6.858938 11.908544
21.770599 20.182438 11.908544
21.770599 6.858938 25.232044
20.182438 25.232044 8.447099
20.182438 11.908544 21.770599
6.858938 25.232044 21.770599
6.858938 11.908544 8.447099
6.464562 25.232044 18.199901
6.464562 11.908544 4.876401
19.788062 25.232044 4.876401
19.788062 11.908544 18.199901
6.464562 1.414956 8.447099
6.464562 14.738456 21.770599
19.788062 1.414956 21.770599
19.788062 14.738456 8.447099
20.182438 1.414956 18.199901
20.182438 14.738456 4.876401
6.858938 1.414956 4.876401
6.858938 14.738456 18.199901
25.232044 18.199901 6.464562
25.232044 4.876401 19.788062
11.908544 18.199901 19.788062
11.908544 4.876401 6.464562
25.232044 8.447099 20.182438
25.232044 21.770599 6.858938
11.908544 8.447099 6.858938
11.908544 21.770599 20.182438
1.414956 18.199901 20.182438
1.414956 4.876401 6.858938
14.738456 18.199901 6.858938
14.738456 4.876401 20.182438
1.414956 8.447099 6.464562
1.414956 21.770599 19.788062
14.738456 8.447099 19.788062
14.738456 21.770599 6.464562
7.721235 7.721235 0.000000
7.721235 7.721235 26.647000
9.337109 9.337109 0.000000
9.337109 9.337109 26.647000
7.721235 21.044735 13.323500
9.337109 22.660609 13.323500
21.044735 7.721235 13.323500
22.660609 9.337109 13.323500
21.044735 21.044735 0.000000
21.044735 21.044735 26.647000
22.660609 22.660609 0.000000
22.660609 22.660609 26.647000
18.925765 18.925765 0.000000
18.925765 18.925765 26.647000
17.309891 17.309891 0.000000
17.309891 17.309891 26.647000
18.925765 5.602265 13.323500
17.309891 3.986391 13.323500
5.602265 18.925765 13.323500
3.986391 17.309891 13.323500
5.602265 5.602265 0.000000
5.602265 5.602265 26.647000
3.986391 3.986391 0.000000
3.986391 3.986391 26.647000
18.925765 7.721235 0.000000
18.925765 7.721235 26.647000
17.309891 9.337109 0.000000
17.309891 9.337109 26.647000
18.925765 21.044735 13.323500
17.309891 22.660609 13.323500
5.602265 7.721235 13.323500
3.986391 9.337109 13.323500
5.602265 21.044735 0.000000
5.602265 21.044735 26.647000
3.986391 22.660609 0.000000
3.986391 22.660609 26.647000
7.721235 18.925765 0.000000
7.721235 18.925765 26.647000
9.337109 17.309891 0.000000
9.337109 17.309891 26.647000
7.721235 5.602265 13.323500
9.337109 3.986391 13.323500
21.044735 18.925765 13.323500
22.660609 17.309891 13.323500
21.044735 5.602265 0.000000
21.044735 5.602265 26.647000
22.660609 3.986391 0.000000
22.660609 3.986391 26.647000
0.000000 7.721235 7.721235
26.647000 7.721235 7.721235
0.000000 9.337109 9.337109
26.647000 9.337109 9.337109
0.000000 21.044735 21.044735
26.647000 21.044735 21.044735
0.000000 22.660609 22.660609
26.647000 22.660609 22.660609
13.323500 7.721235 21.044735
13.323500 9.337109 22.660609
13.323500 21.044735 7.721235
13.323500 22.660609 9.337109
0.000000 18.925765 18.925765
26.647000 18.925765 18.925765
0.000000 17.309891 17.309891
26.647000 17.309891 17.309891
0.000000 5.602265 5.602265
26.647000 5.602265 5.602265
0.000000 3.986391 3.986391
26.647000 3.986391 3.986391
13.323500 18.925765 5.602265
13.323500 17.309891 3.986391
13.323500 5.602265 18.925765
13.323500 3.986391 17.309891
0.000000 18.925765 7.721235
26.647000 18.925765 7.721235
0.000000 17.309891 9.337109
26.647000 17.309891 9.337109
0.000000 5.602265 21.044735
26.647000 5.602265 21.044735
0.000000 3.986391 22.660609
26.647000 3.986391 22.660609
13.323500 18.925765 21.044735
13.323500 17.309891 22.660609
13.323500 5.602265 7.721235
13.323500 3.986391 9.337109
0.000000 7.721235 18.925765
26.647000 7.721235 18.925765
0.000000 9.337109 17.309891
26.647000 9.337109 17.309891
0.000000 21.044735 5.602265
26.647000 21.044735 5.602265
0.000000 22.660609 3.986391
26.647000 22.660609 3.986391
13.323500 7.721235 5.602265
13.323500 9.337109 3.986391
13.323500 21.044735 18.925765
13.323500 22.660609 17.309891
7.721235 0.000000 7.721235
7.721235 26.647000 7.721235
9.337109 0.000000 9.337109
9.337109 26.647000 9.337109
7.721235 13.323500 21.044735
9.337109 13.323500 22.660609
21.044735 0.000000 21.044735
21.044735 26.647000 21.044735
22.660609 0.000000 22.660609
22.660609 26.647000 22.660609
21.044735 13.323500 7.721235
22.660609 13.323500 9.337109
18.925765 0.000000 18.925765
18.925765 26.647000 18.925765
17.309891 0.000000 17.309891
17.309891 26.647000 17.309891
18.925765 13.323500 5.602265
17.309891 13.323500 3.986391
5.602265 0.000000 5.602265
5.602265 26.647000 5.602265
3.986391 0.000000 3.986391
3.986391 26.647000 3.986391
5.602265 13.323500 18.925765
3.986391 13.323500 17.309891
7.721235 0.000000 18.925765
7.721235 26.647000 18.925765
9.337109 0.000000 17.309891
9.337109 26.647000 17.309891
7.721235 13.323500 5.602265
9.337109 13.323500 3.986391
21.044735 0.000000 5.602265
21.044735 26.647000 5.602265
22.660609 0.000000 3.986391
22.660609 26.647000 3.986391
21.044735 13.323500 18.925765
22.660609 13.323500 17.309891
18.925765 0.000000 7.721235
18.925765 26.647000 7.721235
17.309891 0.000000 9.337109
17.309891 26.647000 9.337109
18.925765 13.323500 21.044735
17.309891 13.323500 22.660609
5.602265 0.000000 21.044735
5.602265 26.647000 21.044735
3.986391 0.000000 22.660609
3.986391 26.647000 22.660609
5.602265 13.323500 7.721235
3.986391 13.323500 9.337109
5.393353 7.930147 1.838643
4.737837 8.585663 3.045752
5.393353 21.253647 15.162143
4.737837 21.909163 16.369252
21.253647 18.716853 1.838643
21.909163 18.061337 3.045752
21.253647 5.393353 15.162143
21.909163 4.737837 16.369252
7.930147 5.393353 1.838643
[...]
POINT_DATA 720
SCALARS my_scalars float
LOOKUP_TABLE default
1.52
1.52
1.52
1.52
1.52
1.52
1.52
1.52
1.52
1.52
1.52
1.52
1.52
1.52
1.52
1.52
1.52
1.52
1.52
1.52
1.52
1.52
1.52
1.52
1.52
1.52
1.52
1.52
1.52
1.52
1.52
1.52
1.52
1.52
1.52
1.52
1.52
1.52
1.52
1.52
1.52
1.52
1.52
1.52
1.52
1.52
1.52
1.52
1.52
1.52
1.52
1.52
1.52
1.52
1.52
1.52
1.52
1.52
1.52
1.52
1.52
1.52
1.52
1.52
1.52
1.52
1.52
1.52
1.52
1.52
1.52
1.52
1.52
1.52
1.52
1.52
1.52
1.52
1.52
1.52
1.52
1.52
1.52
1.52
1.52
1.52
1.52
1.52
1.52
1.52
1.52
1.52
1.52
1.52
1.52
1.52
1.52
1.52
1.52
1.52
1.52
1.52
1.52
1.52
1.52
1.52
1.52
1.52
1.52
1.52
1.52
1.52
1.52
1.52
1.52
1.52
1.52
1.52
1.52
1.52
1.52
1.52
1.52
1.52
1.52
1.52
1.52
1.52
1.52
1.52
1.52
1.52
1.52
1.52
1.52
1.52
1.52
1.52
1.52
1.52
1.52
1.52
1.52
1.52
1.52
1.52
1.52
1.52
1.52
1.52
1.52
1.52
1.52
1.52
1.52
1.52
1.52
1.52
1.52
1.52
1.52
1.52
1.52
1.52
1.52
1.52
1.52
1.52
1.52
1.52
1.52
1.52
1.52
1.52
1.52
1.52
1.52
1.52
1.52
1.52
1.52
1.52
1.52
1.52
1.52
1.52
1.52
1.52
1.52
1.52
1.52
1.52
2
2
1.75
1.75
2
1.75
2
1.75
2
2
1.75
1.75
2
2
1.75
1.75
2
1.75
2
1.75
2
2
1.75
1.75
2
2
1.75
1.75
2
1.75
2
1.75
2
2
1.75
1.75
2
2
1.75
1.75
2
1.75
2
1.75
2
2
1.75
1.75
2
2
1.75
1.75
2
2
1.75
1.75
2
1.75
2
1.75
2
2
1.75
1.75
2
2
1.75
1.75
2
1.75
2
1.75
2
2
1.75
1.75
2
2
1.75
1.75
2
1.75
2
1.75
2
2
1.75
1.75
2
2
1.75
1.75
2
1.75
2
1.75
2
2
1.75
1.75
2
1.75
2
2
1.75
1.75
2
1.75
2
2
1.75
1.75
2
1.75
2
2
1.75
1.75
2
1.75
2
2
1.75
1.75
2
1.75
2
2
1.75
1.75
2
1.75
2
2
1.75
1.75
2
1.75
2
2
1.75
1.75
2
1.75
1.7
1.7
1.7
1.7
1.7
1.7
1.7
1.7
1.7
1.7
1.7
1.7
1.7
1.7
1.7
1.7
1.7
1.7
1.7
1.7
1.7
1.7
1.7
1.7
1.7
1.7
1.7
1.7
1.7
1.7
1.7
1.7
1.7
1.7
1.7
1.7
1.7
1.7
1.7
1.7
1.7
1.7
1.7
1.7
1.7
1.7
1.7
1.7
1.7
1.7
1.7
1.7
1.7
1.7
1.7
1.7
1.7
1.7
1.7
1.7
1.7
1.7
1.7
1.7
1.7
1.7
1.7
1.7
1.7
1.7
1.7
1.7
1.7
1.7
1.7
1.7
1.7
1.7
1.7
1.7
1.7
1.7
1.7
1.7
1.7
1.7
1.7
1.7
1.7
1.7
1.7
1.7
1.7
1.7
1.7
1.7
1.7
1.7
1.7
1.7
1.7
1.7
1.7
1.7
1.7
1.7
1.7
1.7
1.7
1.7
1.7
1.7
1.7
1.7
1.7
1.7
1.7
1.7
1.7
1.7
1.7
1.7
1.7
1.7
1.7
1.7
1.7
1.7
1.7
1.7
1.7
1.7
1.7
1.7
1.7
1.7
1.7
1.7
1.7
1.7
1.7
1.7
1.7
1.7
1.7
1.7
1.7
1.7
1.7
1.7
1.7
1.7
1.7
1.7
1.7
1.7
1.7
1.7
1.7
1.7
1.7
1.7
1.7
1.7
1.7
1.7
1.7
1.7
1.7
1.7
1.7
1.7
1.7
1.7
1.7
1.7
1.7
1.7
1.7
1.7
1.7
1.7
1.7
1.7
1.7
1.7
1.7
1.7
1.7
1.7
1.7
1.7
1.7
1.09
1.7
1.09
1.7
1.09
1.7
1.09
1.7
1.09
1.7
1.09
1.7
1.09
1.7
1.09
1.7
1.09
1.7
1.09
1.7
1.09
1.7
1.09
1.7
1.09
1.7
1.09
1.7
1.09
1.7
1.09
1.7
1.09
1.7
1.09
1.7
1.09
1.7
1.09
1.7
1.09
1.7
1.09
1.7
1.09
1.7
1.09
1.7
1.09
1.7
1.09
1.7
1.09
1.7
1.09
1.7
1.09
1.7
1.09
1.7
1.09
1.7
1.09
1.7
1.09
1.7
1.09
1.7
1.09
1.7
1.09
1.7
1.09
1.7
1.09
1.7
1.09
1.7
1.09
1.7
1.09
1.7
1.09
1.7
1.09
1.7
1.09
1.7
1.09
1.7
1.09
1.7
1.09
1.7
1.09
1.7
1.09
1.7
1.09
1.7
1.09
1.7
1.09
1.7
1.09
1.7
1.09
1.7
1.09
1.7
1.09
1.7
1.09
1.7
1.09
1.7
1.09
1.7
1.09
1.7
1.09
1.7
1.09
1.7
1.09
1.7
1.09
1.7
1.09
1.7
1.09
1.7
1.09
1.7
1.09
1.7
1.09
1.7
1.09
1.7
1.09
1.7
1.09
1.7
1.09
1.7
1.09
1.7
1.09
1.7
1.09
1.7
1.09
1.7
1.09
1.7
1.09
1.7
1.09
1.7
1.09
1.7
1.09
1.7
1.09
1.7
1.09
1.7
1.09
1.7
1.09
1.7
1.09
1.7
1.09
1.7
1.09
1.7
1.09
1.7
1.09
1.7
1.09
1.7
1.09
1.7
1.09
1.7
1.09
1.7
1.09
VECTORS vectors float
0.03125 0 0
0.03125 0 0
0.03125 0 0
0.03125 0 0
0.03125 0 0
0.03125 0 0
0.03125 0 0
0.03125 0 0
0.03125 0 0
0.03125 0 0
0.03125 0 0
0.03125 0 0
0.03125 0 0
0.03125 0 0
0.03125 0 0
0.03125 0 0
0.03125 0 0
0.03125 0 0
0.03125 0 0
0.03125 0 0
0.03125 0 0
0.03125 0 0
0.03125 0 0
0.03125 0 0
0.03125 0 0
0.03125 0 0
0.03125 0 0
0.03125 0 0
0.03125 0 0
0.03125 0 0
0.03125 0 0
0.03125 0 0
0.03125 0 0
0.03125 0 0
0.03125 0 0
0.03125 0 0
0.03125 0 0
0.03125 0 0
0.03125 0 0
0.03125 0 0
0.03125 0 0
0.03125 0 0
0.03125 0 0
0.03125 0 0
0.03125 0 0
0.03125 0 0
0.03125 0 0
0.03125 0 0
0.03125 0 0
0.03125 0 0
0.03125 0 0
0.03125 0 0
0.03125 0 0
0.03125 0 0
0.03125 0 0
0.03125 0 0
0.03125 0 0
0.03125 0 0
0.03125 0 0
0.03125 0 0
0.03125 0 0
0.03125 0 0
0.03125 0 0
0.03125 0 0
0.03125 0 0
0.03125 0 0
0.03125 0 0
0.03125 0 0
0.03125 0 0
0.03125 0 0
0.03125 0 0
0.03125 0 0
0.03125 0 0
0.03125 0 0
0.03125 0 0
0.03125 0 0
0.03125 0 0
0.03125 0 0
0.03125 0 0
0.03125 0 0
0.03125 0 0
0.03125 0 0
0.03125 0 0
0.03125 0 0
0.03125 0 0
0.03125 0 0
0.03125 0 0
0.03125 0 0
0.03125 0 0
0.03125 0 0
0.03125 0 0
0.03125 0 0
0.03125 0 0
0.03125 0 0
0.03125 0 0
0.03125 0 0
0.03125 0 0
0.03125 0 0
0.03125 0 0
0.03125 0 0
0.03125 0 0
0.03125 0 0
0.03125 0 0
0.03125 0 0
0.03125 0 0
0.03125 0 0
0.03125 0 0
0.03125 0 0
0.03125 0 0
0.03125 0 0
0.03125 0 0
0.03125 0 0
0.03125 0 0
0.03125 0 0
0.03125 0 0
0.03125 0 0
0.03125 0 0
0.03125 0 0
0.03125 0 0
0.03125 0 0
0.03125 0 0
0.03125 0 0
0.03125 0 0
0.03125 0 0
0.03125 0 0
0.03125 0 0
0.03125 0 0
0.03125 0 0
0.03125 0 0
0.03125 0 0
0.03125 0 0
0.03125 0 0
0.03125 0 0
0.03125 0 0
0.03125 0 0
0.03125 0 0
0.03125 0 0
0.03125 0 0
0.03125 0 0
0.03125 0 0
0.03125 0 0
0.03125 0 0
0.03125 0 0
0.03125 0 0
0.03125 0 0
0.03125 0 0
0.03125 0 0
0.03125 0 0
0.03125 0 0
0.03125 0 0
0.03125 0 0
0.03125 0 0
0.03125 0 0
0.03125 0 0
0.03125 0 0
0.03125 0 0
0.03125 0 0
0.03125 0 0
0.03125 0 0
0.03125 0 0
0.03125 0 0
0.03125 0 0
0.03125 0 0
0.03125 0 0
0.03125 0 0
0.03125 0 0
0.03125 0 0
0.03125 0 0
0.03125 0 0
0.03125 0 0
0.03125 0 0
0.03125 0 0
0.03125 0 0
0.03125 0 0
0.03125 0 0
0.03125 0 0
0.03125 0 0
0.03125 0 0
0.03125 0 0
0.03125 0 0
0.03125 0 0
0.03125 0 0
0.03125 0 0
0.03125 0 0
0.03125 0 0
0.03125 0 0
0.03125 0 0
0.03125 0 0
0.03125 0 0
0.03125 0 0
0.03125 0 0
0.03125 0 0
0.4375 0 0
0.4375 0 0
0.4375 0 0
0.4375 0 0
0.4375 0 0
0.4375 0 0
0.4375 0 0
0.4375 0 0
0.4375 0 0
0.4375 0 0
0.4375 0 0
0.4375 0 0
0.4375 0 0
0.4375 0 0
0.4375 0 0
0.4375 0 0
0.4375 0 0
0.4375 0 0
0.4375 0 0
0.4375 0 0
0.4375 0 0
0.4375 0 0
0.4375 0 0
0.4375 0 0
0.4375 0 0
0.4375 0 0
0.4375 0 0
0.4375 0 0
0.4375 0 0
0.4375 0 0
0.4375 0 0
0.4375 0 0
0.4375 0 0
0.4375 0 0
0.4375 0 0
0.4375 0 0
0.4375 0 0
0.4375 0 0
0.4375 0 0
0.4375 0 0
0.4375 0 0
0.4375 0 0
0.4375 0 0
0.4375 0 0
0.4375 0 0
0.4375 0 0
0.4375 0 0
0.4375 0 0
0.4375 0 0
0.4375 0 0
0.4375 0 0
0.4375 0 0
0.4375 0 0
0.4375 0 0
0.4375 0 0
0.4375 0 0
0.4375 0 0
0.4375 0 0
0.4375 0 0
0.4375 0 0
0.4375 0 0
0.4375 0 0
0.4375 0 0
0.4375 0 0
0.4375 0 0
0.4375 0 0
0.4375 0 0
0.4375 0 0
0.4375 0 0
0.4375 0 0
0.4375 0 0
0.4375 0 0
0.4375 0 0
0.4375 0 0
0.4375 0 0
0.4375 0 0
0.4375 0 0
0.4375 0 0
0.4375 0 0
0.4375 0 0
0.4375 0 0
0.4375 0 0
0.4375 0 0
0.4375 0 0
0.4375 0 0
0.4375 0 0
0.4375 0 0
0.4375 0 0
0.4375 0 0
0.4375 0 0
0.4375 0 0
0.4375 0 0
0.4375 0 0
0.4375 0 0
0.4375 0 0
0.4375 0 0
0.4375 0 0
0.4375 0 0
0.4375 0 0
0.4375 0 0
0.4375 0 0
0.4375 0 0
0.4375 0 0
0.4375 0 0
0.4375 0 0
0.4375 0 0
0.4375 0 0
0.4375 0 0
0.4375 0 0
0.4375 0 0
0.4375 0 0
0.4375 0 0
0.4375 0 0
0.4375 0 0
0.4375 0 0
0.4375 0 0
0.4375 0 0
0.4375 0 0
0.4375 0 0
0.4375 0 0
0.4375 0 0
0.4375 0 0
0.4375 0 0
0.4375 0 0
0.4375 0 0
0.4375 0 0
0.4375 0 0
0.4375 0 0
0.4375 0 0
0.4375 0 0
0.4375 0 0
0.4375 0 0
0.4375 0 0
0.4375 0 0
0.4375 0 0
0.4375 0 0
0.4375 0 0
0.4375 0 0
0.4375 0 0
0.4375 0 0
0.4375 0 0
0.4375 0 0
0.4375 0 0
0.4375 0 0
0.3125 0 0
0.3125 0 0
0.3125 0 0
0.3125 0 0
0.3125 0 0
0.3125 0 0
0.3125 0 0
0.3125 0 0
0.3125 0 0
0.3125 0 0
0.3125 0 0
0.3125 0 0
0.3125 0 0
0.3125 0 0
0.3125 0 0
0.3125 0 0
0.3125 0 0
0.3125 0 0
0.3125 0 0
0.3125 0 0
0.3125 0 0
0.3125 0 0
0.3125 0 0
0.3125 0 0
0.3125 0 0
0.3125 0 0
0.3125 0 0
0.3125 0 0
0.3125 0 0
0.3125 0 0
0.3125 0 0
0.3125 0 0
0.3125 0 0
0.3125 0 0
0.3125 0 0
0.3125 0 0
0.3125 0 0
0.3125 0 0
0.3125 0 0
0.3125 0 0
0.3125 0 0
0.3125 0 0
0.3125 0 0
0.3125 0 0
0.3125 0 0
0.3125 0 0
0.3125 0 0
0.3125 0 0
0.3125 0 0
0.3125 0 0
0.3125 0 0
0.3125 0 0
0.3125 0 0
0.3125 0 0
0.3125 0 0
0.3125 0 0
0.3125 0 0
0.3125 0 0
0.3125 0 0
0.3125 0 0
0.3125 0 0
0.3125 0 0
0.3125 0 0
0.3125 0 0
0.3125 0 0
0.3125 0 0
0.3125 0 0
0.3125 0 0
0.3125 0 0
0.3125 0 0
0.3125 0 0
0.3125 0 0
0.3125 0 0
0.3125 0 0
0.3125 0 0
0.3125 0 0
0.3125 0 0
0.3125 0 0
0.3125 0 0
0.3125 0 0
0.3125 0 0
0.3125 0 0
0.3125 0 0
0.3125 0 0
0.3125 0 0
0.3125 0 0
0.3125 0 0
0.3125 0 0
0.3125 0 0
0.3125 0 0
0.3125 0 0
0.3125 0 0
0.3125 0 0
0.3125 0 0
0.3125 0 0
0.3125 0 0
0.3125 0 0
0.3125 0 0
0.3125 0 0
0.3125 0 0
0.3125 0 0
0.3125 0 0
0.3125 0 0
0.3125 0 0
0.3125 0 0
0.3125 0 0
0.3125 0 0
0.3125 0 0
0.3125 0 0
0.3125 0 0
0.3125 0 0
0.3125 0 0
0.3125 0 0
0.3125 0 0
0.3125 0 0
0.3125 0 0
0.3125 0 0
0.3125 0 0
0.3125 0 0
0.3125 0 0
0.3125 0 0
0.3125 0 0
0.3125 0 0
0.3125 0 0
0.3125 0 0
0.3125 0 0
0.3125 0 0
0.3125 0 0
0.3125 0 0
0.3125 0 0
0.3125 0 0
0.3125 0 0
0.3125 0 0
0.3125 0 0
0.3125 0 0
0.3125 0 0
0.3125 0 0
0.3125 0 0
0.3125 0 0
0.3125 0 0
0.3125 0 0
0.3125 0 0
0.3125 0 0
0.3125 0 0
0.3125 0 0
0.3125 0 0
0.3125 0 0
0.3125 0 0
0.3125 0 0
0.3125 0 0
0.3125 0 0
0.3125 0 0
0.3125 0 0
0.3125 0 0
0.3125 0 0
0.3125 0 0
0.3125 0 0
0.3125 0 0
0.3125 0 0
0.3125 0 0
0.3125 0 0
0.3125 0 0
0.3125 0 0
0.3125 0 0
0.3125 0 0
0.3125 0 0
0.3125 0 0
0.3125 0 0
0.3125 0 0
0.3125 0 0
0.3125 0 0
0.3125 0 0
0.3125 0 0
0.3125 0 0
0.3125 0 0
0.3125 0 0
0.3125 0 0
0.3125 0 0
0.3125 0 0
0.3125 0 0
0.3125 0 0
0.3125 0 0
0.3125 0 0
0.3125 0 0
0.3125 0 0
0.3125 0 0
0.3125 0 0
0.3125 0 0
0.3125 0 0
0.3125 0 0
0.3125 0 0
0.3125 0 0
0.3125 0 0
0.25 0 0
0.3125 0 0
0.25 0 0
0.3125 0 0
0.25 0 0
0.3125 0 0
0.25 0 0
0.3125 0 0
0.25 0 0
0.3125 0 0
0.25 0 0
0.3125 0 0
0.25 0 0
0.3125 0 0
0.25 0 0
0.3125 0 0
0.25 0 0
0.3125 0 0
0.25 0 0
0.3125 0 0
0.25 0 0
0.3125 0 0
0.25 0 0
0.3125 0 0
0.25 0 0
0.3125 0 0
0.25 0 0
0.3125 0 0
0.25 0 0
0.3125 0 0
0.25 0 0
0.3125 0 0
0.25 0 0
0.3125 0 0
0.25 0 0
0.3125 0 0
0.25 0 0
0.3125 0 0
0.25 0 0
0.3125 0 0
0.25 0 0
0.3125 0 0
0.25 0 0
0.3125 0 0
0.25 0 0
0.3125 0 0
0.25 0 0
0.3125 0 0
0.25 0 0
0.3125 0 0
0.25 0 0
0.3125 0 0
0.25 0 0
0.3125 0 0
0.25 0 0
0.3125 0 0
0.25 0 0
0.3125 0 0
0.25 0 0
0.3125 0 0
0.25 0 0
0.3125 0 0
0.25 0 0
0.3125 0 0
0.25 0 0
0.3125 0 0
0.25 0 0
0.3125 0 0
0.25 0 0
0.3125 0 0
0.25 0 0
0.3125 0 0
0.25 0 0
0.3125 0 0
0.25 0 0
0.3125 0 0
0.25 0 0
0.3125 0 0
0.25 0 0
0.3125 0 0
0.25 0 0
0.3125 0 0
0.25 0 0
0.3125 0 0
0.25 0 0
0.3125 0 0
0.25 0 0
0.3125 0 0
0.25 0 0
0.3125 0 0
0.25 0 0
0.3125 0 0
0.25 0 0
0.3125 0 0
0.25 0 0
0.3125 0 0
0.25 0 0
0.3125 0 0
0.25 0 0
0.3125 0 0
0.25 0 0
0.3125 0 0
0.25 0 0
0.3125 0 0
0.25 0 0
0.3125 0 0
0.25 0 0
0.3125 0 0
0.25 0 0
0.3125 0 0
0.25 0 0
0.3125 0 0
0.25 0 0
0.3125 0 0
0.25 0 0
0.3125 0 0
0.25 0 0
0.3125 0 0
0.25 0 0
0.3125 0 0
0.25 0 0
0.3125 0 0
0.25 0 0
0.3125 0 0
0.25 0 0
0.3125 0 0
0.25 0 0
0.3125 0 0
0.25 0 0
0.3125 0 0
0.25 0 0
0.3125 0 0
0.25 0 0
0.3125 0 0
0.25 0 0
0.3125 0 0
0.25 0 0
0.3125 0 0
0.25 0 0
0.3125 0 0
0.25 0 0
0.3125 0 0
0.25 0 0
0.3125 0 0
0.25 0 0
0.3125 0 0
0.25 0 0
0.3125 0 0
0.25 0 0
0.3125 0 0
0.25 0 0
0.3125 0 0
0.25 0 0
0.3125 0 0
0.25 0 0
0.3125 0 0
0.25 0 0
0.3125 0 0
0.25 0 0
0.3125 0 0
0.25 0 0
0.3125 0 0
0.25 0 0
0.3125 0 0
0.25 0 0
0.3125 0 0
0.25 0 0
0.3125 0 0
0.25 0 0
0.3125 0 0
0.25 0 0
0.3125 0 0
0.25 0 0
0.3125 0 0
0.25 0 0
0.3125 0 0
0.25 0 0
0.3125 0 0
0.25 0 0
0.3125 0 0
0.25 0 0
0.3125 0 0
0.25 0 0
0.3125 0 0
0.25 0 0
0.3125 0 0
0.25 0 0
0.3125 0 0
0.25 0 0
0.3125 0 0
0.25 0 0
