# vtk DataFile Version 1.0
Cube
ASCII

DATASET POLYDATA
POINTS 2 float
4.354269 49.643002 4.594131
-17.364795 18.927733 57.795696
LINES 0 0
POINT_DATA 2
SCALARS my_scalars float
LOOKUP_TABLE default
1.7
1.7
VECTORS vectors float
0.3125 0 0
0.3125 0 0
